 argument  1 = S3_final.inp



============================== echo of input deck ==============================
echo

title "S_3 geometry optimization in 3-21g (cc-pvdz) basis set, probably better output"

start testTDDFT_final

# S3 ...

geometry units au

   symmetry c1
   s    1.88044238     0.00000000     0.00143615
   s   -0.93797151     0.00000000    -2.98594793
   s   -0.94247087     0.00000000     2.98451178

end

basis "ao basis" spherical
   s  library 6-31G
end
charge 1

DFT
 cgmin
 odft
 mult 2
END

TDDFT
   CIS
   NROOTS 10
   CIVECS
   GRAD
      ROOT 1
   END
END

task tddft energy
scf
   doublet
   print vectors
   print "overlap"
end
task scf

================================================================================


                                         
                                         


              Northwest Computational Chemistry Package (NWChem) 6.5
              ------------------------------------------------------


                    Environmental Molecular Sciences Laboratory
                       Pacific Northwest National Laboratory
                                Richland, WA 99352

                              Copyright (c) 1994-2014
                       Pacific Northwest National Laboratory
                            Battelle Memorial Institute

             NWChem is an open-source computational chemistry package
                        distributed under the terms of the
                      Educational Community License (ECL) 2.0
             A copy of the license is included with this distribution
                              in the LICENSE.TXT file

                                  ACKNOWLEDGMENT
                                  --------------

            This software and its documentation were developed at the
            EMSL at Pacific Northwest National Laboratory, a multiprogram
            national laboratory, operated for the U.S. Department of Energy
            by Battelle under Contract Number DE-AC05-76RL01830. Support
            for this work was provided by the Department of Energy Office
            of Biological and Environmental Research, Office of Basic
            Energy Sciences, and the Office of Advanced Scientific Computing.


           Job information
           ---------------

    hostname        = S205
    program         = /home/hubert/Downloads/nwchem-6.5/bin/LINUX/nwchem
    date            = Tue Aug  4 09:30:58 2015

    compiled        = dom_lug_19_17:19:23_2015
    source          = /home/hubert/Downloads/nwchem-6.5
    nwchem branch   = 6.5
    nwchem revision = 26243
    ga revision     = 10506
    input           = S3_final.inp
    prefix          = testTDDFT_final.
    data base       = ./testTDDFT_final.db
    status          = startup
    nproc           =        1
    time left       =     -1s



           Memory information
           ------------------

    heap     =   13107194 doubles =    100.0 Mbytes
    stack    =   13107195 doubles =    100.0 Mbytes
    global   =   26214400 doubles =    200.0 Mbytes (distinct from heap & stack)
    total    =   52428789 doubles =    400.0 Mbytes
    verify   = yes
    hardfail = no 


           Directory information
           ---------------------

  0 permanent = .
  0 scratch   = .




                                NWChem Input Module
                                -------------------


  S_3 geometry optimization in 3-21g (cc-pvdz) basis set, probably better output
  ------------------------------------------------------------------------------
 Turning off AUTOSYM since
 SYMMETRY directive was detected!


          ------
          auto-z
          ------


                             Geometry "geometry" -> ""
                             -------------------------

 Output coordinates in a.u. (scale by  1.000000000 to convert to a.u.)

  No.       Tag          Charge          X              Y              Z
 ---- ---------------- ---------- -------------- -------------- --------------
    1 s                   16.0000     1.88044238     0.00000000     0.00143615
    2 s                   16.0000    -0.93797151     0.00000000    -2.98594793
    3 s                   16.0000    -0.94247087     0.00000000     2.98451178

      Atomic Mass 
      ----------- 

      s                 31.972070


 Effective nuclear repulsion energy (a.u.)     167.5418516914

            Nuclear Dipole moment (a.u.) 
            ----------------------------
        X                 Y               Z
 ---------------- ---------------- ----------------
     0.0000000000     0.0000000000     0.0000000000



                                Z-matrix (autoz)
                                -------- 

 Units are Angstrom for bonds and degrees for angles

      Type          Name      I     J     K     L     M      Value
      ----------- --------  ----- ----- ----- ----- ----- ----------
    1 Stretch                  1     2                       2.17336
    2 Stretch                  1     3                       2.17334
    3 Bend                     2     1     3                93.24719


            XYZ format geometry
            -------------------
     3
 geometry
 s                     0.99508733     0.00000000     0.00075998
 s                    -0.49635318     0.00000000    -1.58009571
 s                    -0.49873414     0.00000000     1.57933573

 ==============================================================================
                                internuclear distances
 ------------------------------------------------------------------------------
       center one      |      center two      | atomic units |       a.u.
 ------------------------------------------------------------------------------
    2 s                |   1 s                |     4.10706  |     4.10706
    3 s                |   1 s                |     4.10702  |     4.10702
 ------------------------------------------------------------------------------
                         number of included internuclear distances:          2
 ==============================================================================



 ==============================================================================
                                 internuclear angles
 ------------------------------------------------------------------------------
        center 1       |       center 2       |       center 3       |  degrees
 ------------------------------------------------------------------------------
    2 s                |   1 s                |   3 s                |    93.25
 ------------------------------------------------------------------------------
                            number of included internuclear angles:          1
 ==============================================================================



                      Basis "ao basis" -> "" (spherical)
                      -----
  s (Sulphur)
  -----------
            Exponent  Coefficients 
       -------------- ---------------------------------------------------------
  1 S  2.19171000E+04  0.001869
  1 S  3.30149000E+03  0.014230
  1 S  7.54146000E+02  0.069696
  1 S  2.12711000E+02  0.238487
  1 S  6.79896000E+01  0.483307
  1 S  2.30515000E+01  0.338074

  2 S  4.23735000E+02 -0.002377
  2 S  1.00710000E+02 -0.031693
  2 S  3.21599000E+01 -0.113317
  2 S  1.18079000E+01  0.056090
  2 S  4.63110000E+00  0.592255
  2 S  1.87025000E+00  0.455006

  3 P  4.23735000E+02  0.004061
  3 P  1.00710000E+02  0.030681
  3 P  3.21599000E+01  0.130452
  3 P  1.18079000E+01  0.327205
  3 P  4.63110000E+00  0.452851
  3 P  1.87025000E+00  0.256042

  4 S  2.61584000E+00 -0.250374
  4 S  9.22167000E-01  0.066957
  4 S  3.41287000E-01  1.054510

  5 P  2.61584000E+00 -0.014511
  5 P  9.22167000E-01  0.310263
  5 P  3.41287000E-01  0.754483

  6 S  1.17167000E-01  1.000000

  7 P  1.17167000E-01  1.000000



 Summary of "ao basis" -> "" (spherical)
 ------------------------------------------------------------------------------
       Tag                 Description            Shells   Functions and Types
 ---------------- ------------------------------  ------  ---------------------
 s                           6-31G                   7       13   4s3p


 tddft_input: filename not found; default name will be used

                                 NWChem DFT Module
                                 -----------------


  S_3 geometry optimization in 3-21g (cc-pvdz) basis set, probably better output




 Summary of "ao basis" -> "ao basis" (spherical)
 ------------------------------------------------------------------------------
       Tag                 Description            Shells   Functions and Types
 ---------------- ------------------------------  ------  ---------------------
 s                           6-31G                   7       13   4s3p


  Caching 1-el integrals 

            General Information
            -------------------
          SCF calculation type: DFT
          Wavefunction type:  spin polarized.
          No. of atoms     :     3
          No. of electrons :    47
           Alpha electrons :    24
            Beta electrons :    23
          Charge           :     1
          Spin multiplicity:     2
          Use of symmetry is: off; symmetry adaption is: off
          Maximum number of iterations:  30
          AO basis - number of functions:    39
                     number of shells:    21
          Convergence on energy requested: 1.00D-06
          Convergence on density requested: 1.00D-05
          Convergence on gradient requested: 5.00D-04

              XC Information
              --------------
                        Slater Exchange Functional  1.000 local    
                      VWN V Correlation Functional  1.000 local    

             Grid Information
             ----------------
          Grid used for XC integration:  medium    
          Radial quadrature: Mura-Knowles        
          Angular quadrature: Lebedev. 
          Tag              B.-S. Rad. Rad. Pts. Rad. Cut. Ang. Pts.
          ---              ---------- --------- --------- ---------
          s                   1.00       88          10.0       590
          Grid pruning is: on 
          Number of quadrature shells:   264
          Spatial weights used:  Erf1

          Convergence Information
          -----------------------
          Convergence aids based upon iterative change in 
          total energy or number of iterations. 
          Levelshifting, if invoked, occurs when the 
          HOMO/LUMO gap drops below (HL_TOL): 1.00D-02
          DIIS, if invoked, will attempt to extrapolate 
          using up to (NFOCK): 10 stored Fock matrices.

                    Damping( 0%)  Levelshifting(0.5)       DIIS
                  --------------- ------------------- ---------------
          dE  on:    start            ASAP                start   
          dE off:    2 iters         30 iters            30 iters 


      Screening Tolerance Information
      -------------------------------
          Density screening/tol_rho: 1.00D-10
          AO Gaussian exp screening on grid/accAOfunc:  14
          CD Gaussian exp screening on grid/accCDfunc:  20
          XC Gaussian exp screening on grid/accXCfunc:  20
          Schwarz screening/accCoul: 1.00D-08


      Superposition of Atomic Density Guess
      -------------------------------------

 Sum of atomic energies:       -1192.36704286

 Renormalizing density from      48.00 to     47

      Non-variational initial energy
      ------------------------------

 Total energy =   -1176.709320
 1-e energy   =   -1941.608422
 2-e energy   =     597.357250
 HOMO         =      -0.554778
 LUMO         =      -0.511990



 ----------------------------------------------
         Quadratically convergent UKS

 Convergence threshold     :          5.000E-04
 Maximum no. of iterations :           30
 Integral*density screening:          1.000E-07
 ----------------------------------------------


 Integral file          = ./testTDDFT_final.aoints.0
 Record size in doubles =    65536    No. of integs per rec  =    43688
 Max. records in memory =       11    Max. records in file   = ********
 No. of bits per label  =        8    No. of bits per value  =       64


 #quartets = 2.194D+04 #integrals = 1.334D+05 #direct =  0.0% #cached =100.0%


 Grid_pts file          = ./testTDDFT_final.gridpts.0
 Record size in doubles =  12289        No. of grid_pts per rec  =   3070
 Max. records in memory =     57        Max. recs in file   = *********


              iter       energy          gnorm     gmax       time
             ----- ------------------- --------- --------- --------
                 1    -1189.8885870625  1.04D+00  1.69D-01      3.8
  Setting level-shift to   2.07 to force positive preconditioner
                 2    -1189.9565855882  1.35D-01  3.89D-02      4.7
                 3    -1189.9617907565  7.54D-03  4.84D-03      9.3
                 4    -1189.9618351399  1.53D-03  1.13D-03     17.5
                 5    -1189.9618371856  3.81D-04  2.62D-04     24.4


         Total DFT energy =    -1189.961837185577
      One electron energy =    -1969.615002883901
           Coulomb energy =      684.577174680731
    Exchange-Corr. energy =      -72.465860673828
 Nuclear repulsion energy =      167.541851691421

 Numeric. integr. density =       47.000001409033

     Total iterative time =     23.1s



                    DFT Final Alpha Molecular Orbital Analysis
                    ------------------------------------------

 Vector    1  Occ=1.000000D+00  E=-8.807392D+01
              MO Center=  1.0D+00,  4.8D-16,  7.6D-04, r^2= 3.6D-03
   Bfn.  Coefficient  Atom+Function         Bfn.  Coefficient  Atom+Function  
  ----- ------------  ---------------      ----- ------------  ---------------
     1    0.996217874287      1 S  s                  2    0.138263293437E-01  1 S  s          
     6   -0.569486514636E-02  1 S  s                 10    0.488215978119E-02  1 S  s          
    11   -0.140392552762E-02  1 S  px                23   -0.132361568328E-02  2 S  s          
    36   -0.132365818914E-02  3 S  s                 26   -0.569737408569E-03  2 S  pz         
    39    0.568943747296E-03  3 S  pz                24   -0.533454745240E-03  2 S  px         
    37   -0.534331740224E-03  3 S  px                 7    0.298049828402E-03  1 S  px         
    14   -0.251567096006E-03  2 S  s                 27   -0.251582320452E-03  3 S  s          
    19    0.229705599475E-03  2 S  s                 32    0.229713277647E-03  3 S  s          
     3   -0.126539750187E-03  1 S  px                20    0.331570998987E-04  2 S  px         
    33    0.331247057984E-04  3 S  px                22   -0.270821046966E-04  2 S  pz         
    35    0.271247209775E-04  3 S  pz                16   -0.189304896977E-04  2 S  px         
    29   -0.189450105447E-04  3 S  px                18   -0.793561819472E-05  2 S  pz         
    31    0.790924908081E-05  3 S  pz                15    0.575358183505E-05  2 S  s          
    28    0.575099417750E-05  3 S  s                 13   -0.104909318663E-05  1 S  pz         
     9    0.226743196695E-06  1 S  pz                 5   -0.949830967470E-07  1 S  pz         
    34    0.446929632514E-12  3 S  py                21    0.376711976869E-12  2 S  py         
     8   -0.357816863115E-12  1 S  py                30   -0.147274151038E-12  3 S  py         
    17   -0.129748959894E-12  2 S  py                12   -0.973595497622E-13  1 S  py         
    25    0.714432262911E-13  2 S  py                 4    0.336178409693E-13  1 S  py         
    38   -0.815144092857E-14  3 S  py         

 Vector    2  Occ=1.000000D+00  E=-8.802351D+01
              MO Center= -5.0D-01, -2.2D-14, -2.1D-01, r^2= 2.5D+00
   Bfn.  Coefficient  Atom+Function         Bfn.  Coefficient  Atom+Function  
  ----- ------------  ---------------      ----- ------------  ---------------
    14    0.749883784624      2 S  s                 27   -0.655842497393      3 S  s          
    15    0.104255402201E-01  2 S  s                 28   -0.911516991291E-02  3 S  s          
    19   -0.413077133156E-02  2 S  s                 32    0.366782903821E-02  3 S  s          
    23    0.302449420606E-02  2 S  s                 36   -0.275454722437E-02  3 S  s          
    13    0.899881961819E-03  1 S  pz                26    0.807503860392E-03  2 S  pz         
    39    0.780079840698E-03  3 S  pz                24    0.433522551783E-03  2 S  px         
    37   -0.392116887918E-03  3 S  px                22   -0.217271396297E-03  2 S  pz         
    35   -0.208556924272E-03  3 S  pz                20   -0.850112728292E-04  2 S  px         
     9   -0.741681897294E-04  1 S  pz                33    0.743182011078E-04  3 S  px         
    10   -0.679364381565E-04  1 S  s                 18    0.642777613344E-04  2 S  pz         
    31    0.586131535885E-04  3 S  pz                16    0.398404593484E-04  2 S  px         
    29   -0.347893254353E-04  3 S  px                 5    0.332284806298E-04  1 S  pz         
     1    0.249858256394E-04  1 S  s                 11    0.182507274471E-04  1 S  px         
     6    0.125219743996E-04  1 S  s                  3    0.141450117387E-05  1 S  px         
     7   -0.968154700424E-06  1 S  px                 2   -0.386930123409E-06  1 S  s          
    25    0.283595539529E-11  2 S  py                21   -0.218373938532E-11  2 S  py         
    17   -0.814576460891E-12  2 S  py                12   -0.658101628143E-12  1 S  py         
    34    0.555428442015E-12  3 S  py                 8   -0.356249069752E-12  1 S  py         
    30   -0.184619554852E-12  3 S  py                 4    0.138954632679E-12  1 S  py         
    38   -0.809487638359E-13  3 S  py         

 Vector    3  Occ=1.000000D+00  E=-8.802348D+01
              MO Center= -5.0D-01, -1.6D-14,  2.1D-01, r^2= 2.5D+00
   Bfn.  Coefficient  Atom+Function         Bfn.  Coefficient  Atom+Function  
  ----- ------------  ---------------      ----- ------------  ---------------
    27    0.749894821682      3 S  s                 14    0.655855114724      2 S  s          
    28    0.104474284568E-01  3 S  s                 15    0.914020591414E-02  2 S  s          
    32   -0.372095814632E-02  3 S  s                 19   -0.319925659415E-02  2 S  s          
    36    0.221120301296E-02  3 S  s                 23    0.182459506772E-02  2 S  s          
    10   -0.101618137108E-02  1 S  s                  1    0.373668578161E-03  1 S  s          
    37    0.346342829652E-03  3 S  px                24    0.290815963407E-03  2 S  px         
    11    0.283324933103E-03  1 S  px                39   -0.253260214958E-03  3 S  pz         
     6    0.187344036485E-03  1 S  s                 26    0.147538770598E-03  2 S  pz         
    33   -0.876028415954E-04  3 S  px                35    0.784086950557E-04  3 S  pz         
    20   -0.768692171509E-04  2 S  px                13   -0.599873864134E-04  1 S  pz         
    22   -0.500485178910E-04  2 S  pz                31   -0.460063735070E-04  3 S  pz         
    29    0.409443201727E-04  3 S  px                18    0.378425815298E-04  2 S  pz         
    16    0.358943588357E-04  2 S  px                 3    0.215474262577E-04  1 S  px         
     7   -0.154082510463E-04  1 S  px                 2   -0.580201076515E-05  1 S  s          
     9    0.495637828745E-05  1 S  pz                 5   -0.220809500321E-05  1 S  pz         
    21   -0.235095279135E-11  2 S  py                25    0.226147052732E-11  2 S  py         
    12   -0.620763043370E-12  1 S  py                17   -0.547288056116E-12  2 S  py         
     8    0.505849777293E-12  1 S  py                38   -0.299237989057E-12  3 S  py         
     4   -0.141419924546E-12  1 S  py                34    0.546290804570E-13  3 S  py         
    30    0.160600513265E-13  3 S  py         

 Vector    4  Occ=1.000000D+00  E=-8.007360D+00
              MO Center=  9.9D-01, -7.2D-12,  7.6D-04, r^2= 7.7D-02
   Bfn.  Coefficient  Atom+Function         Bfn.  Coefficient  Atom+Function  
  ----- ------------  ---------------      ----- ------------  ---------------
     2     1.02525094467      1 S  s                  1   -0.281338183664      1 S  s          
     6    0.500786341095E-01  1 S  s                 10   -0.327610749272E-01  1 S  s          
     3   -0.149328569832E-01  1 S  px                11    0.948643371417E-02  1 S  px         
    23    0.860940947785E-02  2 S  s                 36    0.860969226919E-02  3 S  s          
    26    0.371497882399E-02  2 S  pz                39   -0.370987146031E-02  3 S  pz         
    24    0.343369067550E-02  2 S  px                37    0.343940891097E-02  3 S  px         
     7   -0.328842272481E-02  1 S  px                19   -0.160551306787E-02  2 S  s          
    32   -0.160556810052E-02  3 S  s                 15   -0.122230111406E-02  2 S  s          
    28   -0.122225415911E-02  3 S  s                 20   -0.323830790753E-03  2 S  px         
    33   -0.323835004951E-03  3 S  px                14    0.276060910865E-03  2 S  s          
    27    0.276048430400E-03  3 S  s                 16    0.114705299685E-03  2 S  px         
    29    0.114810609843E-03  3 S  px                18    0.567646940362E-04  2 S  pz         
    31   -0.566092898267E-04  3 S  pz                35   -0.341269318567E-04  3 S  pz         
    22    0.336863516085E-04  2 S  pz                 5   -0.111224416061E-04  1 S  pz         
    13    0.708367530945E-05  1 S  pz                 9   -0.247109674626E-05  1 S  pz         
     4   -0.245568695688E-10  1 S  py                 8   -0.320028865104E-11  1 S  py         
    25   -0.276420319571E-11  2 S  py                12    0.143258352411E-11  1 S  py         
    38   -0.133534690454E-11  3 S  py                21    0.360708605035E-12  2 S  py         
    34   -0.196833141969E-12  3 S  py                30    0.104478573353E-12  3 S  py         
    17   -0.906943799107E-13  2 S  py         

 Vector    5  Occ=1.000000D+00  E=-7.956378D+00
              MO Center= -5.0D-01,  2.8D-11, -6.4D-02, r^2= 2.6D+00
   Bfn.  Coefficient  Atom+Function         Bfn.  Coefficient  Atom+Function  
  ----- ------------  ---------------      ----- ------------  ---------------
    15    0.739489539807      2 S  s                 28   -0.710030437247      3 S  s          
    14   -0.202964529932      2 S  s                 27    0.194874373091      3 S  s          
    19    0.354612160583E-01  2 S  s                 32   -0.341562911927E-01  3 S  s          
    23   -0.200459443942E-01  2 S  s                 36    0.194662034704E-01  3 S  s          
    13   -0.592142220633E-02  1 S  pz                18    0.556859799632E-02  2 S  pz         
    26   -0.535552909231E-02  2 S  pz                31    0.533581510148E-02  3 S  pz         
    39   -0.528675860209E-02  3 S  pz                16    0.485618048363E-02  2 S  px         
    29   -0.467108643477E-02  3 S  px                24   -0.289786453541E-02  2 S  px         
    37    0.281257214245E-02  3 S  px                22    0.192397719526E-02  2 S  pz         
    35    0.188098327139E-02  3 S  pz                20    0.100368321510E-02  2 S  px         
    33   -0.965755636077E-03  3 S  px                 9    0.646467252007E-03  1 S  pz         
     5   -0.211144458130E-03  1 S  pz                10    0.142472585296E-03  1 S  s          
     2    0.369201993591E-04  1 S  s                 11   -0.364371041307E-04  1 S  px         
     6   -0.276563783702E-04  1 S  s                  1   -0.108406282706E-04  1 S  s          
     7    0.485221006833E-05  1 S  px                 3   -0.333488114177E-05  1 S  px         
    25    0.127944357490E-08  2 S  py                12   -0.264314779306E-09  1 S  py         
    21   -0.176060082785E-09  2 S  py                38    0.149782804819E-09  3 S  py         
    34   -0.766004104473E-10  3 S  py                17    0.651169628708E-10  2 S  py         
    30    0.139659190543E-10  3 S  py                 4    0.380983590747E-11  1 S  py         
     8    0.544286478626E-13  1 S  py         

 Vector    6  Occ=1.000000D+00  E=-7.956285D+00
              MO Center= -5.0D-01,  2.1D-11,  6.4D-02, r^2= 2.6D+00
   Bfn.  Coefficient  Atom+Function         Bfn.  Coefficient  Atom+Function  
  ----- ------------  ---------------      ----- ------------  ---------------
    28    0.739335780561      3 S  s                 15    0.709870210342      2 S  s          
    27   -0.203036381869      3 S  s                 14   -0.194949190123      2 S  s          
    32    0.328010537996E-01  3 S  s                 19    0.313860491338E-01  2 S  s          
    36   -0.146644620352E-01  3 S  s                 23   -0.138612480880E-01  2 S  s          
    10    0.701952324666E-02  1 S  s                 31   -0.566301865996E-02  3 S  pz         
    18    0.544826074529E-02  2 S  pz                29    0.485856531461E-02  3 S  px         
    16    0.465637064313E-02  2 S  px                37   -0.235795609133E-02  3 S  px         
    24   -0.223945221470E-02  2 S  px                11   -0.201695967392E-02  1 S  px         
     2    0.181552869282E-02  1 S  s                 39    0.169338090236E-02  3 S  pz         
    26   -0.148052603157E-02  2 S  pz                 6   -0.136276757640E-02  1 S  s          
    35   -0.105934880932E-02  3 S  pz                33    0.102483105707E-02  3 S  px         
    20    0.983324667521E-03  2 S  px                22    0.983515701456E-03  2 S  pz         
     1   -0.533092158238E-03  1 S  s                  7    0.264363123613E-03  1 S  px         
     3   -0.172303817804E-03  1 S  px                13    0.118893733903E-03  1 S  pz         
     9   -0.129862725929E-04  1 S  pz                 5    0.417110725093E-05  1 S  pz         
    25    0.122793177047E-08  2 S  py                12   -0.253606166925E-09  1 S  py         
    21   -0.168710343037E-09  2 S  py                38    0.142616299892E-09  3 S  py         
    34   -0.739182574767E-10  3 S  py                17    0.624440301176E-10  2 S  py         
    30    0.114589632517E-10  3 S  py                 4    0.241829091692E-11  1 S  py         
     8    0.115502416088E-13  1 S  py         

 Vector    7  Occ=1.000000D+00  E=-6.061811D+00
              MO Center=  1.0D+00, -2.6D-15,  7.6D-04, r^2= 6.9D-02
   Bfn.  Coefficient  Atom+Function         Bfn.  Coefficient  Atom+Function  
  ----- ------------  ---------------      ----- ------------  ---------------
     5    0.989588477031      1 S  pz                 9    0.350348479075E-01  1 S  pz         
    13   -0.140201799186E-01  1 S  pz                23   -0.337681085445E-02  2 S  s          
    36    0.337685618931E-02  3 S  s                 24   -0.214136255431E-02  2 S  px         
    37    0.214142514006E-02  3 S  px                20    0.852503288556E-03  2 S  px         
    33   -0.853108912257E-03  3 S  px                 3   -0.749133522178E-03  1 S  px         
    19    0.640183008728E-03  2 S  s                 32   -0.640227835489E-03  3 S  s          
    18   -0.394069985049E-03  2 S  pz                31   -0.394208969666E-03  3 S  pz         
    22    0.363441403751E-03  2 S  pz                35    0.362195950699E-03  3 S  pz         
    15   -0.187735137544E-03  2 S  s                 28    0.187736765422E-03  3 S  s          
    29    0.593406082965E-04  3 S  px                16   -0.585647045750E-04  2 S  px         
    14    0.446231458784E-04  2 S  s                 27   -0.446233597127E-04  3 S  s          
    26   -0.271394681749E-04  2 S  pz                 7   -0.265329223143E-04  1 S  px         
    39   -0.238840657775E-04  3 S  pz                11    0.105997015628E-04  1 S  px         
     2   -0.205406025081E-06  1 S  s                  1    0.546742446098E-07  1 S  s          
    10   -0.183188132558E-07  1 S  s                  6    0.817919141041E-08  1 S  s          
     4   -0.251481927162E-08  1 S  py                 8   -0.856600719651E-10  1 S  py         
    30   -0.399764582424E-10  3 S  py                12    0.258038355689E-10  1 S  py         
    34   -0.942000163526E-11  3 S  py                38   -0.638529247320E-11  3 S  py         
    25   -0.607227114666E-11  2 S  py                21    0.319994762116E-11  2 S  py         
    17    0.209257589582E-11  2 S  py         

 Vector    8  Occ=1.000000D+00  E=-6.058998D+00
              MO Center=  1.0D+00, -4.8D-11,  7.6D-04, r^2= 6.9D-02
   Bfn.  Coefficient  Atom+Function         Bfn.  Coefficient  Atom+Function  
  ----- ------------  ---------------      ----- ------------  ---------------
     3    0.989532802371      1 S  px                 7    0.348247545330E-01  1 S  px         
     2    0.164018971652E-01  1 S  s                 11   -0.139442092493E-01  1 S  px         
    10    0.618217840174E-02  1 S  s                  1   -0.452997016009E-02  1 S  s          
    23   -0.348053976211E-02  2 S  s                 36   -0.348066941468E-02  3 S  s          
     6   -0.324287602040E-02  1 S  s                 26   -0.172578577600E-02  2 S  pz         
    39    0.172515328305E-02  3 S  pz                 5    0.749104635439E-03  1 S  pz         
    37   -0.459005274397E-03  3 S  px                24   -0.456366507485E-03  2 S  px         
    22    0.412756341134E-03  2 S  pz                35   -0.412360442031E-03  3 S  pz         
    16   -0.344205934510E-03  2 S  px                29   -0.344799440511E-03  3 S  px         
    19    0.304350738570E-03  2 S  s                 32    0.304406706043E-03  3 S  s          
    20    0.299566032819E-03  2 S  px                33    0.300234096501E-03  3 S  px         
    18   -0.261847467835E-03  2 S  pz                31    0.261516796705E-03  3 S  pz         
    15   -0.152411502903E-03  2 S  s                 28   -0.152413342541E-03  3 S  s          
    14    0.280745723635E-04  2 S  s                 27    0.280753290229E-04  3 S  s          
     9    0.263505325306E-04  1 S  pz                13   -0.105321918433E-04  1 S  pz         
     4   -0.111211244944E-07  1 S  py                 8   -0.386419800822E-09  1 S  py         
    12    0.160994919677E-09  1 S  py                30    0.124951248208E-09  3 S  py         
    38    0.275505992328E-10  3 S  py                25    0.249960268259E-10  2 S  py         
    34    0.248020886513E-10  3 S  py                17    0.190577980015E-10  2 S  py         
    21   -0.923878781562E-11  2 S  py         

 Vector    9  Occ=1.000000D+00  E=-6.057630D+00
              MO Center=  1.0D+00,  5.5D-11,  7.6D-04, r^2= 6.9D-02
   Bfn.  Coefficient  Atom+Function         Bfn.  Coefficient  Atom+Function  
  ----- ------------  ---------------      ----- ------------  ---------------
     4    0.989913304890      1 S  py                 8    0.337419100026E-01  1 S  py         
    12   -0.110908435903E-01  1 S  py                25    0.152341652382E-02  2 S  py         
    38    0.152343899977E-02  3 S  py                21   -0.352830866262E-03  2 S  py         
    34   -0.352842999146E-03  3 S  py                17   -0.261621351845E-03  2 S  py         
    30   -0.261581975684E-03  3 S  py                 3    0.111145577529E-07  1 S  px         
     5    0.252281714870E-08  1 S  pz                 7    0.365570145413E-09  1 S  px         
     2    0.214603106237E-09  1 S  s                 31    0.100554481656E-09  3 S  pz         
     9    0.890477775658E-10  1 S  pz                11   -0.802854620556E-10  1 S  px         
     1   -0.566961860293E-10  1 S  s                 39    0.492053242787E-10  3 S  pz         
    36   -0.479902384294E-10  3 S  s                 23   -0.400943373798E-10  2 S  s          
    26   -0.383264049714E-10  2 S  pz                13   -0.270704170621E-10  1 S  pz         
    19    0.271490770758E-10  2 S  s                 32    0.229533194467E-10  3 S  s          
    22    0.225300894534E-10  2 S  pz                 6    0.214034541653E-10  1 S  s          
    18   -0.201762406733E-10  2 S  pz                20    0.105920953247E-10  2 S  px         
    10   -0.103795869948E-10  1 S  s                 29   -0.846118356225E-11  3 S  px         
    33    0.801540759687E-11  3 S  px                28    0.611397979484E-11  3 S  s          
    35    0.215961964139E-11  3 S  pz                24   -0.142082186144E-11  2 S  px         
    16   -0.136563041825E-11  2 S  px                15   -0.129828769763E-11  2 S  s          
    37    0.904685443929E-12  3 S  px                14    0.868940298969E-12  2 S  s          
    27   -0.467627192358E-12  3 S  s          

 Vector   10  Occ=1.000000D+00  E=-6.015666D+00
              MO Center= -5.0D-01, -2.0D-11, -2.6D-01, r^2= 2.5D+00
   Bfn.  Coefficient  Atom+Function         Bfn.  Coefficient  Atom+Function  
  ----- ------------  ---------------      ----- ------------  ---------------
    18    0.649894831413      2 S  pz                31   -0.550169775965      3 S  pz         
    16    0.383988751297      2 S  px                29    0.326064400454      3 S  px         
    22    0.233905140360E-01  2 S  pz                35   -0.198177643195E-01  3 S  pz         
    20    0.137435482986E-01  2 S  px                33    0.116713058254E-01  3 S  px         
    15   -0.866579490455E-02  2 S  s                 26   -0.744382126035E-02  2 S  pz         
    28   -0.736894755843E-02  3 S  s                 39    0.587951684594E-02  3 S  pz         
    24   -0.494705213827E-02  2 S  px                37   -0.409449869725E-02  3 S  px         
    10    0.257674912545E-02  1 S  s                 14    0.235963864404E-02  2 S  s          
    27    0.199425875334E-02  3 S  s                 19    0.124246385386E-02  2 S  s          
    23   -0.916308620201E-03  2 S  s                 32    0.820130936071E-03  3 S  s          
     7    0.646767844675E-03  1 S  px                 2    0.438647746406E-03  1 S  s          
     6    0.317692448181E-03  1 S  s                 13   -0.256583361905E-03  1 S  pz         
    11    0.203270825701E-03  1 S  px                 3    0.103849598823E-03  1 S  px         
     9    0.898446661728E-04  1 S  pz                36   -0.784582393755E-04  3 S  s          
     1   -0.405877980787E-04  1 S  s                  5   -0.450978946643E-05  1 S  pz         
    17    0.852592380846E-08  2 S  py                30    0.583287106575E-09  3 S  py         
    21    0.297297579044E-09  2 S  py                25   -0.112174741010E-09  2 S  py         
     4    0.716791561924E-10  1 S  py                34    0.208927899671E-10  3 S  py         
    12    0.171607385196E-10  1 S  py                38   -0.585813997260E-11  3 S  py         
     8   -0.148607603344E-11  1 S  py         

 Vector   11  Occ=1.000000D+00  E=-6.015642D+00
              MO Center= -5.0D-01, -1.5D-11,  2.6D-01, r^2= 2.5D+00
   Bfn.  Coefficient  Atom+Function         Bfn.  Coefficient  Atom+Function  
  ----- ------------  ---------------      ----- ------------  ---------------
    31    0.648962107355      3 S  pz                18    0.550260366146      2 S  pz         
    29   -0.385667015281      3 S  px                16    0.326034049626      2 S  px         
    35    0.232540822622E-01  3 S  pz                22    0.197003296615E-01  2 S  pz         
    33   -0.137976852860E-01  3 S  px                20    0.116641104472E-01  2 S  px         
    39   -0.995200575113E-02  3 S  pz                26   -0.885933093578E-02  2 S  pz         
    28    0.850639370167E-02  3 S  s                 15   -0.717996401297E-02  2 S  s          
    37    0.558994933013E-02  3 S  px                36    0.509347650837E-02  3 S  s          
    23   -0.501287975672E-02  2 S  s                 24   -0.482965033173E-02  2 S  px         
    13   -0.309351843315E-02  1 S  pz                32   -0.263297107382E-02  3 S  s          
    19    0.246278028950E-02  2 S  s                 27   -0.238959388877E-02  3 S  s          
    14    0.202945272104E-02  2 S  s                  9    0.108051712229E-02  1 S  pz         
    10   -0.211154801728E-03  1 S  s                  7   -0.542948600129E-04  1 S  px         
     5   -0.530747817926E-04  1 S  pz                 2   -0.363170788190E-04  1 S  s          
     6   -0.268274397677E-04  1 S  s                 11   -0.152988798812E-04  1 S  px         
     3   -0.873703841870E-05  1 S  px                 1    0.334085110802E-05  1 S  s          
    17    0.723125234320E-08  2 S  py                30   -0.670639001131E-09  3 S  py         
    21    0.252293715474E-09  2 S  py                25   -0.957832331924E-10  2 S  py         
     4   -0.600493510465E-10  1 S  py                34   -0.243920416383E-10  3 S  py         
    12    0.138185489437E-10  1 S  py                38    0.956377483434E-11  3 S  py         
     8   -0.430093061983E-11  1 S  py         

 Vector   12  Occ=1.000000D+00  E=-6.006539D+00
              MO Center= -5.0D-01,  8.3D-11, -4.9D-01, r^2= 2.3D+00
   Bfn.  Coefficient  Atom+Function         Bfn.  Coefficient  Atom+Function  
  ----- ------------  ---------------      ----- ------------  ---------------
    17    0.800624709362      2 S  py                30   -0.582073497621      3 S  py         
    21    0.274081708999E-01  2 S  py                34   -0.199992420010E-01  3 S  py         
    25   -0.872670106055E-02  2 S  py                38    0.648728809525E-02  3 S  py         
    12    0.304717495201E-03  1 S  py                 4    0.935012825030E-04  1 S  py         
     8   -0.718411629228E-04  1 S  py                16   -0.141566875833E-06  2 S  px         
    18    0.733005796114E-07  2 S  pz                29    0.636884048923E-07  3 S  px         
    31    0.373118117109E-07  3 S  pz                20   -0.488601551021E-08  2 S  px         
    22    0.253394196841E-08  2 S  pz                33    0.222366197161E-08  3 S  px         
    24    0.169045694686E-08  2 S  px                35    0.130443001877E-08  3 S  pz         
    37   -0.859402924696E-09  3 S  px                26   -0.848000677225E-09  2 S  pz         
    39   -0.558465677933E-09  3 S  pz                13    0.383482870623E-09  1 S  pz         
    15    0.298885019205E-09  2 S  s                 10   -0.171241233847E-09  1 S  s          
    28   -0.159384815717E-09  3 S  s                  9   -0.138848980568E-09  1 S  pz         
    36    0.117681195085E-09  3 S  s                 32   -0.801794514492E-10  3 S  s          
    14   -0.777162313074E-10  2 S  s                  5    0.683513922396E-10  1 S  pz         
    23    0.622950876065E-10  2 S  s                  3    0.524841950837E-10  1 S  px         
     6    0.419039103081E-10  1 S  s                 27    0.389802077659E-10  3 S  s          
     7   -0.990899472715E-11  1 S  px                19   -0.778713791630E-11  2 S  s          
     2   -0.497640650038E-11  1 S  s                 11   -0.459014252537E-11  1 S  px         
     1    0.195027391738E-11  1 S  s          

 Vector   13  Occ=1.000000D+00  E=-6.006525D+00
              MO Center= -5.0D-01,  7.8D-11,  4.9D-01, r^2= 2.3D+00
   Bfn.  Coefficient  Atom+Function         Bfn.  Coefficient  Atom+Function  
  ----- ------------  ---------------      ----- ------------  ---------------
    30    0.800663137104      3 S  py                17    0.582126207300      2 S  py         
    34    0.271840830897E-01  3 S  py                21    0.196914891590E-01  2 S  py         
    38   -0.828656171820E-02  3 S  py                25   -0.588202211855E-02  2 S  py         
    12    0.192801990692E-02  1 S  py                 4    0.591437983960E-03  1 S  py         
     8   -0.454595103881E-03  1 S  py                16   -0.104003560678E-06  2 S  px         
    29   -0.865698393649E-07  3 S  px                18    0.538004391376E-07  2 S  pz         
    31   -0.504683636659E-07  3 S  pz                20   -0.355460744836E-08  2 S  px         
    33   -0.294853074455E-08  3 S  px                22    0.184839420833E-08  2 S  pz         
    35   -0.173269782129E-08  3 S  pz                24    0.111401011903E-08  2 S  px         
    37    0.896431537236E-09  3 S  px                26   -0.459523179052E-09  2 S  pz         
    39    0.418544262662E-09  3 S  pz                10   -0.405290888278E-09  1 S  s          
    15    0.212683831361E-09  2 S  s                 23    0.210870936322E-09  2 S  s          
    28    0.202470844341E-09  3 S  s                 36    0.203257951077E-09  3 S  s          
     3   -0.145857092922E-09  1 S  px                 6    0.113487395055E-09  1 S  s          
    32   -0.801871809186E-10  3 S  s                 19   -0.749451096812E-10  2 S  s          
    14   -0.593981367024E-10  2 S  s                 27   -0.582775976253E-10  3 S  s          
     5    0.410973824863E-10  1 S  pz                13    0.320032646480E-10  1 S  pz         
     7   -0.298091570641E-10  1 S  px                 2   -0.131558012820E-10  1 S  s          
     9   -0.120777709888E-10  1 S  pz                11   -0.792635050427E-11  1 S  px         
     1    0.594456817706E-11  1 S  s          

 Vector   14  Occ=1.000000D+00  E=-6.005982D+00
              MO Center= -5.0D-01, -8.8D-11, -5.3D-01, r^2= 2.3D+00
   Bfn.  Coefficient  Atom+Function         Bfn.  Coefficient  Atom+Function  
  ----- ------------  ---------------      ----- ------------  ---------------
    16    0.696446669256      2 S  px                29   -0.489637221550      3 S  px         
    18   -0.412396035927      2 S  pz                31   -0.291262043772      3 S  pz         
    20    0.240317411598E-01  2 S  px                33   -0.169879969749E-01  3 S  px         
    22   -0.142891775383E-01  2 S  pz                35   -0.101267854003E-01  3 S  pz         
    24   -0.841771849784E-02  2 S  px                37    0.623950422687E-02  3 S  px         
    26    0.504349239166E-02  2 S  pz                39    0.401925442510E-02  3 S  pz         
    13   -0.213455203186E-02  1 S  pz                15   -0.162486503746E-02  2 S  s          
    28    0.116351361288E-02  3 S  s                  9    0.769329543694E-03  1 S  pz         
    36   -0.626358749567E-03  3 S  s                  5   -0.563607942200E-03  1 S  pz         
    10    0.446844992077E-03  1 S  s                 32    0.445482261934E-03  3 S  s          
    14    0.423936815893E-03  2 S  s                 27   -0.291332240519E-03  3 S  s          
    19   -0.271319666903E-03  2 S  s                 23    0.150888440449E-03  2 S  s          
     6   -0.131102251061E-03  1 S  s                  3    0.331125202917E-04  1 S  px         
     7    0.246443972627E-04  1 S  px                 2    0.967826368823E-05  1 S  s          
     1   -0.588866448902E-05  1 S  s                 11    0.316693665766E-05  1 S  px         
    17    0.161946297048E-06  2 S  py                30   -0.708537186522E-07  3 S  py         
    21    0.552916985598E-08  2 S  py                34   -0.244277755969E-08  3 S  py         
    25   -0.174792479831E-08  2 S  py                38    0.812336814547E-09  3 S  py         
    12    0.126963955077E-09  1 S  py                 4    0.593606992555E-10  1 S  py         
     8   -0.293505264130E-10  1 S  py         

 Vector   15  Occ=1.000000D+00  E=-6.005969D+00
              MO Center= -5.0D-01, -7.7D-11,  5.3D-01, r^2= 2.3D+00
   Bfn.  Coefficient  Atom+Function         Bfn.  Coefficient  Atom+Function  
  ----- ------------  ---------------      ----- ------------  ---------------
    29    0.696220998583      3 S  px                16    0.490655482508      2 S  px         
    31    0.412849486282      3 S  pz                18   -0.289646975439      2 S  pz         
    33    0.237665051422E-01  3 S  px                20    0.166572366315E-01  2 S  px         
    35    0.142073362230E-01  3 S  pz                22   -0.993198490110E-02  2 S  pz         
    37   -0.751857788538E-02  3 S  px                24   -0.497613829690E-02  2 S  px         
    39   -0.377505229130E-02  3 S  pz                10    0.256894464360E-02  1 S  s          
    26    0.218859735495E-02  2 S  pz                28   -0.156886578199E-02  3 S  s          
    23   -0.143572496892E-02  2 S  s                 36   -0.129924757432E-02  3 S  s          
    15   -0.108439991632E-02  2 S  s                  6   -0.753513427841E-03  1 S  s          
    19    0.564255296533E-03  2 S  s                 27    0.443446976946E-03  3 S  s          
    32    0.438828416849E-03  3 S  s                 13    0.370782405527E-03  1 S  pz         
    14    0.319203992565E-03  2 S  s                  3    0.188379057712E-03  1 S  px         
     7    0.144760894041E-03  1 S  px                 9   -0.133679280785E-03  1 S  pz         
     5    0.980771345113E-04  1 S  pz                 2    0.557427898487E-04  1 S  s          
     1   -0.338594560711E-04  1 S  s                 11    0.109187423047E-04  1 S  px         
    17    0.113050386760E-06  2 S  py                30    0.102331766611E-06  3 S  py         
    21    0.383008616171E-08  2 S  py                34    0.346279332083E-08  3 S  py         
    25   -0.116244240044E-08  2 S  py                38   -0.104290910244E-08  3 S  py         
    12    0.300049032572E-09  1 S  py                 8   -0.722007144110E-10  1 S  py         
     4    0.449967386758E-10  1 S  py         

 Vector   16  Occ=1.000000D+00  E=-1.049053D+00
              MO Center=  3.2D-01, -8.3D-10,  2.4D-04, r^2= 1.6D+00
   Bfn.  Coefficient  Atom+Function         Bfn.  Coefficient  Atom+Function  
  ----- ------------  ---------------      ----- ------------  ---------------
     6    0.549960387693      1 S  s                 19    0.302165334243      2 S  s          
    32    0.302159254766      3 S  s                  2   -0.272337753913      1 S  s          
    10    0.210682532153      1 S  s                  7   -0.168829459930      1 S  px         
    15   -0.144810171568      2 S  s                 28   -0.144807478202      3 S  s          
    22    0.959720238941E-01  2 S  pz                35   -0.958611409090E-01  3 S  pz         
    20    0.750217370765E-01  2 S  px                33    0.751690059144E-01  3 S  px         
     3    0.668476219148E-01  1 S  px                 1    0.602477396059E-01  1 S  s          
    11   -0.544803549428E-01  1 S  px                23    0.547244813055E-01  2 S  s          
    36    0.547191987668E-01  3 S  s                 18   -0.396345651248E-01  2 S  pz         
    31    0.395892332512E-01  3 S  pz                14    0.325365149525E-01  2 S  s          
    27    0.325359149045E-01  3 S  s                 16   -0.306865964548E-01  2 S  px         
    29   -0.307475867893E-01  3 S  px                24   -0.371962909140E-02  2 S  px         
    37   -0.372050086136E-02  3 S  px                39   -0.412207307161E-03  3 S  pz         
    26    0.408596120542E-03  2 S  pz                 9   -0.124630799260E-03  1 S  pz         
     5    0.494010582399E-04  1 S  pz                13   -0.404749543444E-04  1 S  pz         
    25   -0.237203678747E-08  2 S  py                38    0.623301423125E-09  3 S  py         
    34    0.561275296411E-09  3 S  py                21   -0.429772639899E-09  2 S  py         
    17    0.332731718375E-09  2 S  py                30   -0.236574840637E-09  3 S  py         
     8    0.614030707506E-10  1 S  py                12    0.581542008280E-10  1 S  py         
     4    0.409838325132E-10  1 S  py         

 Vector   17  Occ=1.000000D+00  E=-9.209480D-01
              MO Center= -2.5D-01, -5.7D-09, -3.0D-04, r^2= 3.0D+00
   Bfn.  Coefficient  Atom+Function         Bfn.  Coefficient  Atom+Function  
  ----- ------------  ---------------      ----- ------------  ---------------
    19    0.533781277763      2 S  s                 32   -0.533728434351      3 S  s          
    15   -0.253993158654      2 S  s                 28    0.253968999634      3 S  s          
     9   -0.198341113274      1 S  pz                23    0.198739565164      2 S  s          
    36   -0.198717344273      3 S  s                  5    0.791042068330E-01  1 S  pz         
    20    0.775041449098E-01  2 S  px                33   -0.776148490378E-01  3 S  px         
    22    0.698272365460E-01  2 S  pz                35    0.697143606475E-01  3 S  pz         
    14    0.566245425786E-01  2 S  s                 27   -0.566191118371E-01  3 S  s          
    16   -0.294658357299E-01  2 S  px                29    0.295075145587E-01  3 S  px         
    18   -0.261616611713E-01  2 S  pz                26    0.260674443514E-01  2 S  pz         
    31   -0.261189946093E-01  3 S  pz                39    0.260318922907E-01  3 S  pz         
    24    0.216163341034E-01  2 S  px                37   -0.216532108619E-01  3 S  px         
    13   -0.596922579757E-02  1 S  pz                 7    0.154311448555E-03  1 S  px         
     3   -0.613060740452E-04  1 S  px                 6   -0.297835476695E-04  1 S  s          
     2    0.139057850106E-04  1 S  s                 10   -0.130185004156E-04  1 S  s          
    11    0.646338336806E-05  1 S  px                 1   -0.310905346908E-05  1 S  s          
    25   -0.485924231586E-08  2 S  py                21   -0.156468684382E-08  2 S  py         
    34    0.138798496105E-08  3 S  py                38    0.125509097792E-08  3 S  py         
    17    0.911719625771E-09  2 S  py                30   -0.562857038518E-09  3 S  py         
     8   -0.164242459168E-09  1 S  py                12    0.100160081951E-09  1 S  py         
     4    0.809649964359E-10  1 S  py         

 Vector   18  Occ=1.000000D+00  E=-8.327804D-01
              MO Center=  4.0D-02, -1.9D-09,  1.3D-04, r^2= 3.3D+00
   Bfn.  Coefficient  Atom+Function         Bfn.  Coefficient  Atom+Function  
  ----- ------------  ---------------      ----- ------------  ---------------
     6    0.545790822942      1 S  s                 19   -0.466860947079      2 S  s          
    32   -0.466913405323      3 S  s                  2   -0.247181355462      1 S  s          
    10    0.247767371914      1 S  s                 15    0.216948968933      2 S  s          
    28    0.216974815037      3 S  s                 23   -0.201236056984      2 S  s          
    36   -0.201260148717      3 S  s                  1    0.555046116882E-01  1 S  s          
    14   -0.484596722222E-01  2 S  s                 27   -0.484653554354E-01  3 S  s          
    20    0.351085771184E-01  2 S  px                33    0.351176214161E-01  3 S  px         
     7    0.329225884782E-01  1 S  px                26   -0.178848701259E-01  2 S  pz         
    39    0.178817460987E-01  3 S  pz                 3   -0.176195876629E-01  1 S  px         
    16   -0.157929294111E-01  2 S  px                29   -0.157992493892E-01  3 S  px         
    22    0.144667046725E-01  2 S  pz                35   -0.144023113750E-01  3 S  pz         
    11   -0.127260473151E-01  1 S  px                18   -0.733519373154E-02  2 S  pz         
    31    0.730718683284E-02  3 S  pz                37   -0.500781083034E-02  3 S  px         
    24   -0.497696769610E-02  2 S  px                13   -0.114568378199E-04  1 S  pz         
     9    0.720442526899E-05  1 S  pz                 5   -0.631782569307E-05  1 S  pz         
    25    0.487950722843E-08  2 S  py                21    0.213680916779E-08  2 S  py         
    34   -0.147864564270E-08  3 S  py                38   -0.137285105811E-08  3 S  py         
    17   -0.110589715901E-08  2 S  py                30    0.599840325462E-09  3 S  py         
     4   -0.570301940116E-10  1 S  py                12    0.153101477634E-10  1 S  py         
     8   -0.563909633887E-12  1 S  py         

 Vector   19  Occ=1.000000D+00  E=-6.325228D-01
              MO Center=  8.5D-04, -2.2D-09, -1.1D-04, r^2= 3.6D+00
   Bfn.  Coefficient  Atom+Function         Bfn.  Coefficient  Atom+Function  
  ----- ------------  ---------------      ----- ------------  ---------------
     9    0.541074085465      1 S  pz                20   -0.296742739177      2 S  px         
    33    0.297030476154      3 S  px                19    0.223821675218      2 S  s          
    32   -0.223804110816      3 S  s                  5   -0.201328121185      1 S  pz         
    22   -0.199651510465      2 S  pz                35   -0.199134543283      3 S  pz         
    13    0.160202774267      1 S  pz                16    0.113032618500      2 S  px         
    29   -0.113143033845      3 S  px                23    0.107433298059      2 S  s          
    36   -0.107424957330      3 S  s                 15   -0.953493020921E-01  2 S  s          
    28    0.953428288732E-01  3 S  s                 24   -0.807324997382E-01  2 S  px         
    37    0.808203834702E-01  3 S  px                18    0.763865473845E-01  2 S  pz         
    31    0.761898571536E-01  3 S  pz                26   -0.599840869602E-01  2 S  pz         
    39   -0.598383204270E-01  3 S  pz                14    0.217011341629E-01  2 S  s          
    27   -0.216995929825E-01  3 S  s                  7   -0.362541942155E-03  1 S  px         
     3    0.134422502177E-03  1 S  px                11   -0.103005925600E-03  1 S  px         
     6    0.277492348158E-04  1 S  s                  2   -0.107782588117E-04  1 S  s          
    10    0.907349955592E-05  1 S  s                  1    0.253683771122E-05  1 S  s          
    21   -0.492706761168E-08  2 S  py                25   -0.459051998702E-08  2 S  py         
     8   -0.279661824661E-08  1 S  py                17    0.203542864587E-08  2 S  py         
    12   -0.116544577398E-08  1 S  py                 4    0.108195603699E-08  1 S  py         
    34    0.107726577769E-08  3 S  py                38    0.104083380089E-08  3 S  py         
    30   -0.419431953450E-09  3 S  py         

 Vector   20  Occ=1.000000D+00  E=-6.150771D-01
              MO Center=  4.5D-01, -4.2D-09,  4.4D-04, r^2= 3.5D+00
   Bfn.  Coefficient  Atom+Function         Bfn.  Coefficient  Atom+Function  
  ----- ------------  ---------------      ----- ------------  ---------------
     7    0.527283327025      1 S  px                22   -0.333709045225      2 S  pz         
    35    0.333656240161      3 S  pz                 6    0.227251754226      1 S  s          
    11    0.209427917225      1 S  px                 3   -0.199023210119      1 S  px         
    19    0.146033017353      2 S  s                 32    0.146081753140      3 S  s          
    18    0.127619775688      2 S  pz                31   -0.127601153606      3 S  pz         
    23    0.108407049565      2 S  s                 36    0.108436634319      3 S  s          
    26   -0.102015730668      2 S  pz                39    0.102046313753      3 S  pz         
     2   -0.908586255279E-01  1 S  s                 15   -0.654038696788E-01  2 S  s          
    28   -0.654254880564E-01  3 S  s                 10    0.621978150532E-01  1 S  s          
    33   -0.505304144556E-01  3 S  px                20   -0.499637486813E-01  2 S  px         
     1    0.211754928617E-01  1 S  s                 29    0.186071562237E-01  3 S  px         
    16    0.183903481242E-01  2 S  px                24    0.175306948533E-01  2 S  px         
    37    0.173609148803E-01  3 S  px                14    0.145843764989E-01  2 S  s          
    27    0.145892224485E-01  3 S  s                  9    0.346822168669E-03  1 S  pz         
    13    0.140937955139E-03  1 S  pz                 5   -0.131252690333E-03  1 S  pz         
     8   -0.769715824645E-08  1 S  py                21   -0.602487593404E-08  2 S  py         
    25   -0.377845827501E-08  2 S  py                12   -0.303175368535E-08  1 S  py         
     4    0.284051443453E-08  1 S  py                17    0.237212583999E-08  2 S  py         
    34   -0.217419372108E-08  3 S  py                30    0.830930348286E-09  3 S  py         
    38   -0.598046240467E-09  3 S  py         

 Vector   21  Occ=1.000000D+00  E=-5.897532D-01
              MO Center=  4.6D-01,  4.3D-09,  3.0D-04, r^2= 2.6D+00
   Bfn.  Coefficient  Atom+Function         Bfn.  Coefficient  Atom+Function  
  ----- ------------  ---------------      ----- ------------  ---------------
     8    0.595141963647      1 S  py                21    0.294505074633      2 S  py         
    34    0.294470931711      3 S  py                12    0.254096370444      1 S  py         
     4   -0.223357832339      1 S  py                25    0.120021789989      2 S  py         
    38    0.120008519853      3 S  py                17   -0.112431049403      2 S  py         
    30   -0.112418701356      3 S  py                19    0.926753258730E-08  2 S  s          
    22   -0.635479351746E-08  2 S  pz                 7    0.609350087083E-08  1 S  px         
    26   -0.457337713655E-08  2 S  pz                10    0.369095062757E-08  1 S  s          
    35    0.345774682446E-08  3 S  pz                23   -0.334790457154E-08  2 S  s          
    15   -0.315441778923E-08  2 S  s                  9    0.283870893319E-08  1 S  pz         
    18    0.251687265834E-08  2 S  pz                 3   -0.238902822402E-08  1 S  px         
    20   -0.178216727403E-08  2 S  px                36    0.156923307368E-08  3 S  s          
     6    0.152301078871E-08  1 S  s                 24   -0.133782530410E-08  2 S  px         
    11    0.129200681373E-08  1 S  px                31   -0.125647680044E-08  3 S  pz         
     5   -0.104243857162E-08  1 S  pz                 2   -0.100844719797E-08  1 S  s          
    33    0.100603043246E-08  3 S  px                13   -0.883871512809E-09  1 S  pz         
    14    0.861195132756E-09  2 S  s                 37    0.830443892569E-09  3 S  px         
    16    0.694934125693E-09  2 S  px                29   -0.405493933377E-09  3 S  px         
    28   -0.355765230312E-09  3 S  s                 39    0.308820383791E-09  3 S  pz         
     1    0.197819950438E-09  1 S  s                 32    0.193132481534E-09  3 S  s          
    27    0.579640407149E-10  3 S  s          

 Vector   22  Occ=1.000000D+00  E=-5.181042D-01
              MO Center= -4.1D-01,  1.2D-10, -7.3D-04, r^2= 3.8D+00
   Bfn.  Coefficient  Atom+Function         Bfn.  Coefficient  Atom+Function  
  ----- ------------  ---------------      ----- ------------  ---------------
    20    0.482870945738      2 S  px                33    0.482473266534      3 S  px         
     7   -0.233441280666      1 S  px                24    0.201287349524      2 S  px         
    37    0.201059200040      3 S  px                22   -0.193273958042      2 S  pz         
    35    0.193841555284      3 S  pz                16   -0.178885428682      2 S  px         
    29   -0.178734806244      3 S  px                 6   -0.127945809711      1 S  s          
    26   -0.122397607851      2 S  pz                39    0.122643707024      3 S  pz         
     3    0.838142614959E-01  1 S  px                11   -0.793841823214E-01  1 S  px         
    18    0.738630533887E-01  2 S  pz                31   -0.740749214346E-01  3 S  pz         
    10   -0.655328101131E-01  1 S  s                  2    0.529832906906E-01  1 S  s          
    23   -0.401464148542E-01  2 S  s                 36   -0.401474379331E-01  3 S  s          
    19    0.168514513382E-01  2 S  s                 32    0.168568616241E-01  3 S  s          
     1   -0.120775574940E-01  1 S  s                 15    0.270945308359E-02  2 S  s          
    28    0.270932666317E-02  3 S  s                 14    0.187106471186E-03  2 S  s          
    27    0.187289830217E-03  3 S  s                  9   -0.165925279092E-03  1 S  pz         
    13   -0.651623537700E-04  1 S  pz                 5    0.600173708040E-04  1 S  pz         
    34   -0.713122815207E-08  3 S  py                21    0.709007722756E-08  2 S  py         
    25    0.429524247067E-08  2 S  py                38   -0.279485688488E-08  3 S  py         
    17   -0.269886041357E-08  2 S  py                30    0.261969413761E-08  3 S  py         
     8   -0.181909343738E-08  1 S  py                12   -0.803310157374E-09  1 S  py         
     4    0.632029701700E-09  1 S  py         

 Vector   23  Occ=1.000000D+00  E=-5.023204D-01
              MO Center= -5.0D-01,  1.0D-08, -7.0D-04, r^2= 3.8D+00
   Bfn.  Coefficient  Atom+Function         Bfn.  Coefficient  Atom+Function  
  ----- ------------  ---------------      ----- ------------  ---------------
    21    0.556851622435      2 S  py                34   -0.556728229467      3 S  py         
    25    0.252271908700      2 S  py                38   -0.252218756643      3 S  py         
    17   -0.206272347948      2 S  py                30    0.206227855726      3 S  py         
     8   -0.937227403301E-04  1 S  py                12   -0.415944256009E-04  1 S  py         
     4    0.340581019134E-04  1 S  py                23    0.141401357576E-07  2 S  s          
    20   -0.944308081581E-08  2 S  px                33   -0.527318235586E-08  3 S  px         
    15   -0.399024692920E-08  2 S  s                 35   -0.379838663840E-08  3 S  pz         
     7    0.352008865108E-08  1 S  px                16    0.339686441728E-08  2 S  px         
    22   -0.305176227138E-08  2 S  pz                37   -0.258726213156E-08  3 S  px         
    11    0.197941595244E-08  1 S  px                29    0.197608399009E-08  3 S  px         
    24   -0.169707181354E-08  2 S  px                39   -0.155587445928E-08  3 S  pz         
    13    0.152653369006E-08  1 S  pz                 9    0.144610235570E-08  1 S  pz         
    31    0.139200576863E-08  3 S  pz                 3   -0.120889211094E-08  1 S  px         
    10   -0.113055102288E-08  1 S  s                 18    0.106816287453E-08  2 S  pz         
    19   -0.993771109128E-09  2 S  s                  6    0.840315760850E-09  1 S  s          
    14    0.663944033625E-09  2 S  s                 26    0.536125519720E-09  2 S  pz         
     5   -0.492881522722E-09  1 S  pz                 2   -0.314197176293E-09  1 S  s          
    32   -0.305959063653E-09  3 S  s                 28    0.144725023192E-09  3 S  s          
    36   -0.100967876234E-09  3 S  s                  1    0.759462931998E-10  1 S  s          
    27   -0.316106326323E-10  3 S  s          

 Vector   24  Occ=1.000000D+00  E=-4.914067D-01
              MO Center= -4.6D-01, -1.3D-10,  5.2D-05, r^2= 4.0D+00
   Bfn.  Coefficient  Atom+Function         Bfn.  Coefficient  Atom+Function  
  ----- ------------  ---------------      ----- ------------  ---------------
    22    0.514130497056      2 S  pz                35    0.514614098302      3 S  pz         
    20   -0.284077258431      2 S  px                33    0.283455678504      3 S  px         
    26    0.222506619108      2 S  pz                39    0.222718101790      3 S  pz         
    18   -0.186786271802      2 S  pz                31   -0.186967248680      3 S  pz         
    24   -0.115111287473      2 S  px                37    0.114851794004      3 S  px         
    16    0.105675139692      2 S  px                29   -0.105451034821      3 S  px         
    13    0.703286114743E-01  1 S  pz                23    0.291817216706E-01  2 S  s          
    36   -0.291877830709E-01  3 S  s                 19    0.269181798357E-01  2 S  s          
    32   -0.269056154353E-01  3 S  s                 15   -0.763442811828E-02  2 S  s          
    28    0.763216042929E-02  3 S  s                  9   -0.398909668181E-02  1 S  pz         
    14    0.196364029506E-02  2 S  s                 27   -0.196289260263E-02  3 S  s          
     5   -0.131130618272E-02  1 S  pz                11   -0.594184944250E-04  1 S  px         
     6   -0.217860679062E-04  1 S  s                  7   -0.196752259103E-04  1 S  px         
    10   -0.139975700544E-04  1 S  s                  3    0.904261466045E-05  1 S  px         
     2    0.877772705726E-05  1 S  s                  1   -0.201304541909E-05  1 S  s          
    34   -0.351582728309E-08  3 S  py                 8    0.304249171018E-08  1 S  py         
    38   -0.167142085841E-08  3 S  py                12    0.138710641056E-08  1 S  py         
    30    0.129243799925E-08  3 S  py                21    0.115405365283E-08  2 S  py         
     4   -0.111283932708E-08  1 S  py                25   -0.448899229876E-09  2 S  py         
    17   -0.373116712087E-09  2 S  py         

 Vector   25  Occ=0.000000D+00  E=-4.640630D-01
              MO Center=  3.4D-02, -4.6D-10,  4.0D-04, r^2= 3.5D+00
   Bfn.  Coefficient  Atom+Function         Bfn.  Coefficient  Atom+Function  
  ----- ------------  ---------------      ----- ------------  ---------------
     8    0.536095131021      1 S  py                21   -0.462339983262      2 S  py         
    34   -0.462499461479      3 S  py                12    0.244719222903      1 S  py         
    25   -0.224764121403      2 S  py                38   -0.224844250744      3 S  py         
     4   -0.192124581640      1 S  py                17    0.169378444420      2 S  py         
    30    0.169437845844      3 S  py                23    0.113519766039E-07  2 S  s          
    19   -0.100045459054E-07  2 S  s                 10   -0.645597688389E-08  1 S  s          
    24    0.374458075621E-08  2 S  px                26    0.374538120277E-08  2 S  pz         
    11    0.310771173251E-08  1 S  px                20    0.285921929422E-08  2 S  px         
    22   -0.259036573726E-08  2 S  pz                35   -0.259987218751E-08  3 S  pz         
    13    0.215434627476E-08  1 S  pz                15    0.196644675980E-08  2 S  s          
    16   -0.110529003325E-08  2 S  px                 6    0.941894071021E-09  1 S  s          
    31    0.856575398424E-09  3 S  pz                18    0.741356025487E-09  2 S  pz         
    14   -0.729288125153E-09  2 S  s                 32    0.495049713950E-09  3 S  s          
    39   -0.493820164171E-09  3 S  pz                37    0.381206039215E-09  3 S  px         
     7    0.375757407218E-09  1 S  px                 2    0.291823067391E-09  1 S  s          
     9   -0.288650167443E-09  1 S  pz                 5    0.134527270962E-09  1 S  pz         
     3   -0.881877059097E-10  1 S  px                36    0.808118263652E-10  3 S  s          
    33    0.341078714888E-10  3 S  px                27    0.158847560296E-10  3 S  s          
    29    0.807871706146E-11  3 S  px                28   -0.324538050833E-11  3 S  s          
     1   -0.322475225403E-11  1 S  s          

 Vector   26  Occ=0.000000D+00  E=-3.742203D-01
              MO Center=  9.1D-02,  1.6D-10, -9.8D-04, r^2= 3.7D+00
   Bfn.  Coefficient  Atom+Function         Bfn.  Coefficient  Atom+Function  
  ----- ------------  ---------------      ----- ------------  ---------------
     7    0.603292116956      1 S  px                11    0.479042781618      1 S  px         
    10   -0.434105015987      1 S  s                 22    0.388295854771      2 S  pz         
    35   -0.387591967359      3 S  pz                26    0.298819943368      2 S  pz         
    39   -0.298233852618      3 S  pz                 6   -0.278266892669      1 S  s          
    20    0.276703028867      2 S  px                33    0.276729842693      3 S  px         
    23    0.239598228826      2 S  s                 36    0.239340921072      3 S  s          
    24    0.231567737568      2 S  px                37    0.231634646690      3 S  px         
     3   -0.208467079103      1 S  px                18   -0.136754672353      2 S  pz         
    31    0.136507046175      3 S  pz                 2    0.105923551850      1 S  s          
    16   -0.982261712729E-01  2 S  px                29   -0.982360945184E-01  3 S  px         
    19    0.804517345767E-01  2 S  s                 32    0.802901692333E-01  3 S  s          
    15   -0.417767135753E-01  2 S  s                 28   -0.417128612321E-01  3 S  s          
     1   -0.242154296006E-01  1 S  s                 14    0.849378033767E-02  2 S  s          
    27    0.847936913250E-02  3 S  s                  9    0.886304959295E-03  1 S  pz         
    13    0.703333246281E-03  1 S  pz                 5   -0.308630988754E-03  1 S  pz         
    21    0.363245296741E-08  2 S  py                17   -0.118333734408E-08  2 S  py         
    25   -0.366903328527E-09  2 S  py                12   -0.315414325631E-09  1 S  py         
    34   -0.269988129060E-09  3 S  py                 8   -0.127751086293E-09  1 S  py         
    30    0.996574569782E-10  3 S  py                 4    0.793712047802E-10  1 S  py         
    38   -0.586019163182E-10  3 S  py         

 Vector   27  Occ=0.000000D+00  E=-3.669809D-01
              MO Center=  2.2D-01,  2.1D-10,  1.3D-03, r^2= 3.6D+00
   Bfn.  Coefficient  Atom+Function         Bfn.  Coefficient  Atom+Function  
  ----- ------------  ---------------      ----- ------------  ---------------
     9    0.638275726043      1 S  pz                13    0.523658489051      1 S  pz         
    20    0.417401076125      2 S  px                33   -0.418131534529      3 S  px         
    24    0.292866649126      2 S  px                37   -0.293474028539      3 S  px         
    22    0.229575740101      2 S  pz                35    0.229455489999      3 S  pz         
     5   -0.223642428016      1 S  pz                23    0.202791341773      2 S  s          
    36   -0.203123029945      3 S  s                 26    0.188077555242      2 S  pz         
    39    0.188033340865      3 S  pz                16   -0.146630210488      2 S  px         
    29    0.146886623852      3 S  px                19    0.125547528614      2 S  s          
    32   -0.125658522997      3 S  s                 18   -0.796207055280E-01  2 S  pz         
    31   -0.795788511126E-01  3 S  pz                15   -0.491987966315E-01  2 S  s          
    28    0.492560786971E-01  3 S  s                 14    0.111256524702E-01  2 S  s          
    27   -0.111373035927E-01  3 S  s                  7   -0.880775474885E-03  1 S  px         
    11   -0.720667069237E-03  1 S  px                 3    0.306294385643E-03  1 S  px         
    10    0.300063626316E-03  1 S  s                  6    0.194491912812E-03  1 S  s          
     2   -0.731173726581E-04  1 S  s                  1    0.167917045706E-04  1 S  s          
    21    0.248544309213E-08  2 S  py                34   -0.156510820814E-08  3 S  py         
    17   -0.817030853719E-09  2 S  py                30    0.559254261595E-09  3 S  py         
    38   -0.459053592491E-09  3 S  py                 8    0.344513753797E-09  1 S  py         
    25   -0.181504021260E-09  2 S  py                 4   -0.114417508162E-09  1 S  py         
    12    0.544129262679E-12  1 S  py         

 Vector   28  Occ=0.000000D+00  E=-1.303551D-02
              MO Center= -2.9D-02, -3.9D-09, -8.0D-05, r^2= 4.9D+00
   Bfn.  Coefficient  Atom+Function         Bfn.  Coefficient  Atom+Function  
  ----- ------------  ---------------      ----- ------------  ---------------
    23     1.20718777018      2 S  s                 36     1.20713402703      3 S  s          
    19    -1.02708669331      2 S  s                 32    -1.02703723911      3 S  s          
     6   -0.675027978610      1 S  s                 11    0.546691289906      1 S  px         
    26    0.232616576237      2 S  pz                39   -0.232512723723      3 S  pz         
     7   -0.202906544936      1 S  px                22   -0.156083884689      2 S  pz         
    35    0.156149188776      3 S  pz                10    0.103595119899      1 S  s          
     2    0.792732010791E-01  1 S  s                 24    0.782793692314E-01  2 S  px         
    37    0.786409733376E-01  3 S  px                15    0.762601691036E-01  2 S  s          
    28    0.762572904809E-01  3 S  s                  3    0.569453568914E-01  1 S  px         
    14   -0.464648698514E-01  2 S  s                 27   -0.464627418959E-01  3 S  s          
    18    0.396723344397E-01  2 S  pz                31   -0.396949486447E-01  3 S  pz         
     1   -0.340054965770E-01  1 S  s                 20    0.331663615904E-01  2 S  px         
    33    0.329218594138E-01  3 S  px                16   -0.123291594640E-01  2 S  px         
    29   -0.122671428061E-01  3 S  px                13    0.416533445187E-03  1 S  pz         
     9   -0.146925910671E-03  1 S  pz                 5    0.408711344054E-04  1 S  pz         
    34    0.135399758387E-07  3 S  py                38   -0.112115298668E-07  3 S  py         
    12    0.440369329678E-08  1 S  py                30   -0.368052634141E-08  3 S  py         
     8   -0.318263372971E-08  1 S  py                21   -0.265618892392E-08  2 S  py         
    25    0.228975803506E-08  2 S  py                 4    0.841579812433E-09  1 S  py         
    17    0.673969463637E-09  2 S  py         

 Vector   29  Occ=0.000000D+00  E= 5.115542D-02
              MO Center=  9.8D-02,  1.3D-08, -6.6D-05, r^2= 7.3D+00
   Bfn.  Coefficient  Atom+Function         Bfn.  Coefficient  Atom+Function  
  ----- ------------  ---------------      ----- ------------  ---------------
    13    0.837638962265      1 S  pz                19    0.691092209806      2 S  s          
    32   -0.691129374227      3 S  s                  9   -0.659713771569      1 S  pz         
    26    0.584385621331      2 S  pz                39    0.584130312092      3 S  pz         
    22   -0.458067055935      2 S  pz                35   -0.458028209408      3 S  pz         
    23   -0.450197864580      2 S  s                 36    0.450231401279      3 S  s          
     5    0.160976645027      1 S  pz                18    0.117638736368      2 S  pz         
    31    0.117623245220      3 S  pz                37   -0.103674059225      3 S  px         
    24    0.102713465047      2 S  px                15   -0.595049688968E-01  2 S  s          
    28    0.595077886794E-01  3 S  s                 20    0.339838682693E-01  2 S  px         
    33   -0.332016498955E-01  3 S  px                14    0.321794782295E-01  2 S  s          
    27   -0.321811753863E-01  3 S  s                 16   -0.444431670070E-02  2 S  px         
    29    0.424380277826E-02  3 S  px                11   -0.636665981570E-03  1 S  px         
     7    0.520434924628E-03  1 S  px                 3   -0.127039570423E-03  1 S  px         
    10   -0.223084821315E-04  1 S  s                  6    0.101334435074E-04  1 S  s          
     1    0.422397263590E-06  1 S  s                  2   -0.368976272956E-06  1 S  s          
    12   -0.196257063040E-07  1 S  py                 8    0.187211021551E-07  1 S  py         
    21    0.164391872552E-07  2 S  py                25   -0.140797790214E-07  2 S  py         
    38    0.489436706571E-08  3 S  py                 4   -0.459056097790E-08  1 S  py         
    17   -0.415925061475E-08  2 S  py                34   -0.272272392613E-08  3 S  py         
    30    0.756125299828E-09  3 S  py         

 Vector   30  Occ=0.000000D+00  E= 5.585195D-02
              MO Center=  2.2D-01,  8.9D-09,  8.1D-05, r^2= 4.7D+00
   Bfn.  Coefficient  Atom+Function         Bfn.  Coefficient  Atom+Function  
  ----- ------------  ---------------      ----- ------------  ---------------
     8    0.800146868186      1 S  py                12   -0.735263930104      1 S  py         
    21    0.599690815490      2 S  py                34    0.599635041930      3 S  py         
    25   -0.501830966682      2 S  py                38   -0.501757961768      3 S  py         
     4   -0.197857078966      1 S  py                17   -0.151589606680      2 S  py         
    30   -0.151576380365      3 S  py                19   -0.279541475669E-07  2 S  s          
     6    0.255138237684E-07  1 S  s                 11   -0.234719966336E-07  1 S  px         
    23    0.235448447405E-07  2 S  s                 10   -0.231914774799E-07  1 S  s          
     7    0.226593064154E-07  1 S  px                33    0.179624806838E-07  3 S  px         
    20    0.177310775071E-07  2 S  px                24   -0.159181790550E-07  2 S  px         
    37   -0.152961571325E-07  3 S  px                35    0.124368313535E-07  3 S  pz         
    36   -0.102822392835E-07  3 S  s                 39   -0.950644634097E-08  3 S  pz         
     9    0.930330721097E-08  1 S  pz                32    0.855364912374E-08  3 S  s          
    13   -0.804135258139E-08  1 S  pz                 3   -0.558655235586E-08  1 S  px         
    16   -0.466827406555E-08  2 S  px                29   -0.454741502296E-08  3 S  px         
    31   -0.320909104036E-08  3 S  pz                15    0.299205696395E-08  2 S  s          
    26   -0.235510947519E-08  2 S  pz                 5   -0.225120997042E-08  1 S  pz         
     2   -0.189276049248E-08  1 S  s                 14   -0.147479569915E-08  2 S  s          
     1    0.115126219483E-08  1 S  s                 28   -0.592540876629E-09  3 S  s          
    27    0.378372867467E-09  3 S  s                 18   -0.107699499378E-09  2 S  pz         
    22   -0.444685354282E-11  2 S  pz         

 Vector   31  Occ=0.000000D+00  E= 6.087700D-02
              MO Center=  2.5D-01, -7.3D-09,  1.3D-04, r^2= 5.7D+00
   Bfn.  Coefficient  Atom+Function         Bfn.  Coefficient  Atom+Function  
  ----- ------------  ---------------      ----- ------------  ---------------
    11    0.766677105268      1 S  px                 7   -0.663993762555      1 S  px         
    24    0.578005218350      2 S  px                37    0.577940044710      3 S  px         
    20   -0.570732912988      2 S  px                33   -0.570492492149      3 S  px         
     6   -0.543945127244      1 S  s                 10    0.291512463495      1 S  s          
    19    0.278726284862      2 S  s                 32    0.278600899585      3 S  s          
     3    0.166226150903      1 S  px                16    0.145927371884      2 S  px         
    29    0.145868566678      3 S  px                35   -0.137235252492      3 S  pz         
    22    0.136324740590      2 S  pz                23   -0.127114278082      2 S  s          
    36   -0.126996307381      3 S  s                  2    0.476480083507E-01  1 S  s          
    31    0.336147957508E-01  3 S  pz                18   -0.333809417657E-01  2 S  pz         
     1   -0.254522915505E-01  1 S  s                 15   -0.236217662543E-01  2 S  s          
    28   -0.236121906152E-01  3 S  s                 14    0.129463859618E-01  2 S  s          
    27    0.129407096390E-01  3 S  s                 39    0.506224808475E-02  3 S  pz         
    26   -0.414022126455E-02  2 S  pz                13    0.614103077162E-03  1 S  pz         
     9   -0.529052928176E-03  1 S  pz                 5    0.132283104154E-03  1 S  pz         
     8    0.300496009703E-07  1 S  py                12   -0.291085825664E-07  1 S  py         
    21    0.205502955727E-07  2 S  py                25   -0.170861144321E-07  2 S  py         
[...]
    25   -0.173693525253E-12  2 S  py                21    0.135713366923E-12  2 S  py         
    12    0.123753136472E-12  1 S  py                 8   -0.685472584663E-13  1 S  py         
    38   -0.559340775284E-13  3 S  py                34    0.410647000020E-13  3 S  py         
    17   -0.318815804288E-13  2 S  py                 4    0.163229995161E-13  1 S  py         
    30   -0.100445210613E-13  3 S  py         

 Vector   34  Occ=0.000000D+00  E= 3.278691D-01
              MO Center= -2.9D-01, -2.3D-14, -1.2D+00, r^2= 4.9D+00
   Bfn.  Coefficient  Atom+Function         Bfn.  Coefficient  Atom+Function  
  ----- ------------  ---------------      ----- ------------  ---------------
    25     1.28125610384      2 S  py                21    -1.01099488058      2 S  py         
    12   -0.883274757759      1 S  py                 8    0.484836603968      1 S  py         
    38    0.377654622116      3 S  py                34   -0.273968780353      3 S  py         
    17    0.239387011822      2 S  py                 4   -0.107966116561      1 S  py         
    30    0.684966110924E-01  3 S  py                10    0.327121833929E-12  1 S  s          
    11   -0.181362558786E-12  1 S  px                39    0.157519436768E-12  3 S  pz         
    26   -0.148567294690E-12  2 S  pz                 6   -0.137493835573E-12  1 S  s          
    23   -0.131271840724E-12  2 S  s                 36   -0.100865764658E-12  3 S  s          
    35   -0.925185075835E-13  3 S  pz                22    0.904721624940E-13  2 S  pz         
    24   -0.611115102048E-13  2 S  px                13   -0.540491835956E-13  1 S  pz         
     7    0.475235543623E-13  1 S  px                33   -0.445477756481E-13  3 S  px         
    18   -0.239357186631E-13  2 S  pz                31    0.227504611542E-13  3 S  pz         
     9    0.224179105266E-13  1 S  pz                20   -0.192598336116E-13  2 S  px         
    32    0.189804042946E-13  3 S  s                  3   -0.124074903756E-13  1 S  px         
    19    0.119723770083E-13  2 S  s                 29    0.109908796260E-13  3 S  px         
    16    0.501909007627E-14  2 S  px                 1   -0.468568237182E-14  1 S  s          
    15    0.423118761845E-14  2 S  s                  5   -0.395285050483E-14  1 S  pz         
    37   -0.339057546700E-14  3 S  px                28    0.166218637420E-14  3 S  s          
     2   -0.845728413327E-15  1 S  s                 27    0.502869341653E-15  3 S  s          
    14   -0.961235566688E-16  2 S  s          

 Vector   35  Occ=0.000000D+00  E= 3.558777D-01
              MO Center= -2.2D-02, -7.9D-15,  3.6D-01, r^2= 6.4D+00
   Bfn.  Coefficient  Atom+Function         Bfn.  Coefficient  Atom+Function  
  ----- ------------  ---------------      ----- ------------  ---------------
    10     2.10343660395      1 S  s                 37    -1.26689041576      3 S  px         
    36    -1.12137978114      3 S  s                 23   -0.960857955649      2 S  s          
    24   -0.938289031384      2 S  px                33    0.744785110387      3 S  px         
     6   -0.679427105415      1 S  s                 20    0.576999967748      2 S  px         
    32    0.565272548463      3 S  s                 26   -0.548479817629      2 S  pz         
    19    0.538791389736      2 S  s                 39    0.486608765226      3 S  pz         
     7   -0.371086061330      1 S  px                22    0.214621609920      2 S  pz         
    13    0.210015569236      1 S  pz                29   -0.173225376110      3 S  px         
    35   -0.172065691654      3 S  pz                16   -0.135415029846      2 S  px         
    11   -0.130485626987      1 S  px                 9   -0.851940999242E-01  1 S  pz         
     3    0.756719306307E-01  1 S  px                18   -0.462553323969E-01  2 S  pz         
    31    0.414614691582E-01  3 S  pz                 1   -0.234885863907E-01  1 S  s          
    27    0.195166382294E-01  3 S  s                  5    0.191743036784E-01  1 S  pz         
    14    0.187809644469E-01  2 S  s                  2   -0.448227430425E-02  1 S  s          
    28    0.122265619468E-02  3 S  s                 15   -0.602775406544E-03  2 S  s          
    38    0.531983776346E-13  3 S  py                34   -0.494470594829E-13  3 S  py         
    25   -0.266061334756E-13  2 S  py                21    0.241365363113E-13  2 S  py         
    12   -0.135883317525E-13  1 S  py                30    0.122662870109E-13  3 S  py         
     8    0.696906487213E-14  1 S  py                17   -0.596514802376E-14  2 S  py         
     4   -0.230864816873E-14  1 S  py         

 Vector   36  Occ=0.000000D+00  E= 3.660744D-01
              MO Center= -4.9D-01,  3.5D-15,  1.3D+00, r^2= 4.2D+00
   Bfn.  Coefficient  Atom+Function         Bfn.  Coefficient  Atom+Function  
  ----- ------------  ---------------      ----- ------------  ---------------
    38    -1.24724337549      3 S  py                34     1.18480677091      3 S  py         
    25    0.412198882496      2 S  py                21   -0.376939000351      2 S  py         
    12    0.337183261369      1 S  py                30   -0.295820577198      3 S  py         
     8   -0.164179338406      1 S  py                17    0.888712627435E-01  2 S  py         
     4    0.364064161203E-01  1 S  py                10    0.825204040078E-13  1 S  s          
    24   -0.633251832835E-13  2 S  px                23   -0.587732086080E-13  2 S  s          
    20    0.394015917356E-13  2 S  px                37   -0.384167425560E-13  3 S  px         
    19    0.334400817611E-13  2 S  s                 33    0.328375812365E-13  3 S  px         
    36   -0.275827772667E-13  3 S  s                  6   -0.243241172103E-13  1 S  s          
    26   -0.218927840208E-13  2 S  pz                13   -0.167833906361E-13  1 S  pz         
     7   -0.155958452244E-13  1 S  px                32    0.137840548847E-13  3 S  s          
    39    0.127835989993E-13  3 S  pz                16   -0.961670415841E-14  2 S  px         
     9    0.897866168753E-14  1 S  pz                29   -0.792280719124E-14  3 S  px         
    35   -0.461092185518E-14  3 S  pz                 3    0.374091081289E-14  1 S  px         
    22    0.319094215419E-14  2 S  pz                 5   -0.279910620093E-14  1 S  pz         
    11   -0.204019499448E-14  1 S  px                31    0.136681209442E-14  3 S  pz         
    14    0.127036400995E-14  2 S  s                 28    0.932789633040E-15  3 S  s          
     1   -0.832058007307E-15  1 S  s                 15   -0.701815454641E-15  2 S  s          
    18   -0.460361774517E-15  2 S  pz                27    0.330757994512E-15  3 S  s          
     2   -0.240908516989E-15  1 S  s          

 Vector   37  Occ=0.000000D+00  E= 3.929178D-01
              MO Center= -2.8D-01,  3.4D-15, -4.6D-01, r^2= 6.6D+00
   Bfn.  Coefficient  Atom+Function         Bfn.  Coefficient  Atom+Function  
  ----- ------------  ---------------      ----- ------------  ---------------
    13     1.30710892868      1 S  pz                24     1.29636246323      2 S  px         
    37    -1.12558693911      3 S  px                36    -1.01545907863      3 S  s          
    20   -0.926058908560      2 S  px                23    0.626531776705      2 S  s          
    33    0.567930005015      3 S  px                10    0.455779743621      1 S  s          
     9   -0.387810261658      1 S  pz                11   -0.349852747884      1 S  px         
    32    0.344285200346      3 S  s                 19   -0.293979111235      2 S  s          
     6   -0.276227570765      1 S  s                 16    0.224235400178      2 S  px         
    22    0.215500718283      2 S  pz                35    0.179204863778      3 S  pz         
     7    0.144177404704      1 S  px                26   -0.139743306211      2 S  pz         
    29   -0.133792670961      3 S  px                 5    0.893068690333E-01  1 S  pz         
    39    0.584620085728E-01  3 S  pz                18   -0.544224650444E-01  2 S  pz         
    31   -0.373471229334E-01  3 S  pz                 3   -0.287740876554E-01  1 S  px         
    27    0.115181321624E-01  3 S  s                 14   -0.104540827415E-01  2 S  s          
     1   -0.927173350720E-02  1 S  s                 28    0.470843140950E-02  3 S  s          
    15    0.193827271074E-02  2 S  s                  2   -0.188713147667E-02  1 S  s          
    38   -0.181695430743E-13  3 S  py                34    0.179783978456E-13  3 S  py         
    25    0.794787560569E-14  2 S  py                21   -0.760081501811E-14  2 S  py         
    30   -0.504121348667E-14  3 S  py                12    0.319110672406E-14  1 S  py         
     8   -0.232638297389E-14  1 S  py                17    0.202362530335E-14  2 S  py         
     4    0.184422054242E-14  1 S  py         

 Vector   38  Occ=0.000000D+00  E= 4.230773D-01
              MO Center=  2.5D-01,  2.0D-15, -9.5D-02, r^2= 4.2D+00
   Bfn.  Coefficient  Atom+Function         Bfn.  Coefficient  Atom+Function  
  ----- ------------  ---------------      ----- ------------  ---------------
    10     2.90480063921      1 S  s                  6    -1.60341112786      1 S  s          
    23    -1.59304154065      2 S  s                 11    -1.58202607904      1 S  px         
    36    -1.16577711264      3 S  s                 35    0.571378042634      3 S  pz         
    22   -0.562940865784      2 S  pz                 7    0.547665800572      1 S  px         
    24   -0.535338075270      2 S  px                19    0.481197065384      2 S  s          
    32    0.256422067084      3 S  s                 33   -0.197962810224      3 S  px         
    13   -0.191407098829      1 S  pz                37   -0.191043122632      3 S  px         
    26   -0.171170505782      2 S  pz                18    0.136899088148      2 S  pz         
    31   -0.134561352749      3 S  pz                 3   -0.105044137477      1 S  px         
     1   -0.536589353764E-01  1 S  s                 29    0.440161194935E-01  3 S  px         
     9    0.311327277125E-01  1 S  pz                20    0.293408976215E-01  2 S  px         
    28    0.192409285259E-01  3 S  s                 15    0.182696917576E-01  2 S  s          
    39    0.179750040799E-01  3 S  pz                14    0.147676817289E-01  2 S  s          
     2   -0.135787709549E-01  1 S  s                 16   -0.126289074036E-01  2 S  px         
     5   -0.789560709526E-02  1 S  pz                27    0.685730981150E-02  3 S  s          
    25   -0.320450977965E-14  2 S  py                34   -0.305390046113E-14  3 S  py         
    21    0.296480140435E-14  2 S  py                38    0.252450267544E-14  3 S  py         
     4    0.153070638097E-14  1 S  py                12    0.142529678704E-14  1 S  py         
    17   -0.894441338715E-15  2 S  py                30    0.734833209361E-15  3 S  py         
     8   -0.174986651086E-15  1 S  py         

 Vector   39  Occ=0.000000D+00  E= 4.811822D-01
              MO Center= -5.6D-01,  2.7D-15, -8.0D-02, r^2= 4.9D+00
   Bfn.  Coefficient  Atom+Function         Bfn.  Coefficient  Atom+Function  
  ----- ------------  ---------------      ----- ------------  ---------------
    36    -1.91702975530      3 S  s                 23     1.78782403230      2 S  s          
    26     1.37399140945      2 S  pz                39     1.34332461805      3 S  pz         
    32     1.16048935450      3 S  s                 19    -1.13443087279      2 S  s          
    22   -0.736460918138      2 S  pz                13    0.713536385187      1 S  pz         
    35   -0.621616779424      3 S  pz                37   -0.405402149292      3 S  px         
    24    0.322848878806      2 S  px                18    0.160697898306      2 S  pz         
    10    0.143722558661      1 S  s                  9    0.137459003977      1 S  pz         
    31    0.130680882355      3 S  pz                33    0.941800615507E-01  3 S  px         
     6   -0.789571181626E-01  1 S  s                 11   -0.650454899830E-01  1 S  px         
    27    0.407995547704E-01  3 S  s                 14   -0.404684081071E-01  2 S  s          
    20   -0.354236460439E-01  2 S  px                 5   -0.222112572107E-01  1 S  pz         
     7    0.193328224310E-01  1 S  px                29   -0.191592757972E-01  3 S  px         
    15    0.107325610609E-01  2 S  s                 28   -0.605812946439E-02  3 S  s          
     3   -0.327999435847E-02  1 S  px                 1   -0.261139182734E-02  1 S  s          
    16    0.216299323865E-02  2 S  px                 2   -0.877573307628E-03  1 S  s          
    38   -0.350991111350E-14  3 S  py                34    0.240604875663E-14  3 S  py         
    12    0.126449013521E-14  1 S  py                 8   -0.936371234046E-15  1 S  py         
    30   -0.808034336642E-15  3 S  py                25    0.549926873554E-15  2 S  py         
    17   -0.364369180005E-15  2 S  py                 4    0.230097114049E-15  1 S  py         
    21   -0.182870821870E-15  2 S  py         


 center of mass
 --------------
 x =  -0.00000000 y =   0.00000000 z =   0.00000000

 moments of inertia (a.u.)
 ------------------
         569.844523470148           0.000000000000           0.299921286331
           0.000000000000         739.427753849090           0.000000000000
           0.299921286331           0.000000000000         169.583230378942

  Mulliken analysis of the total density
  --------------------------------------

    Atom       Charge   Shell Charges
 -----------   ------   -------------------------------------------------------
    1 S   16    15.64   2.00  2.00  5.98  1.46  2.77  0.53  0.90
    2 S   16    15.68   2.00  2.00  5.98  1.47  2.68  0.55  1.01
    3 S   16    15.69   2.00  2.00  5.98  1.47  2.69  0.55  1.01

  Mulliken analysis of the alpha density
  --------------------------------------

    Atom       Charge   Shell Charges
 -----------   ------   -------------------------------------------------------
    1 S   16     7.09   1.00  1.00  2.98  0.72  0.82  0.26  0.31
    2 S   16     8.42   1.00  1.00  2.99  0.74  1.77  0.27  0.66
    3 S   16     8.49   1.00  1.00  2.99  0.74  1.83  0.27  0.66

   Mulliken analysis of the beta density
   -------------------------------------

    Atom       Charge   Shell Charges
 -----------   ------   -------------------------------------------------------
    1 S   16     8.54   1.00  1.00  2.99  0.74  1.95  0.27  0.59
    2 S   16     7.26   1.00  1.00  2.98  0.73  0.91  0.28  0.35
    3 S   16     7.20   1.00  1.00  2.98  0.73  0.86  0.28  0.35

   Mulliken analysis of the spin density
   -------------------------------------

    Atom       Charge   Shell Charges
 -----------   ------   -------------------------------------------------------
    1 S   16    -1.45  -0.00 -0.00 -0.01 -0.02 -1.14 -0.00 -0.28
    2 S   16     1.16  -0.00 -0.00  0.01  0.01  0.86 -0.02  0.31
    3 S   16     1.29  -0.00 -0.00  0.01  0.01  0.97 -0.02  0.32

       Multipole analysis of the density wrt the origin
       ------------------------------------------------

     L   x y z        total         alpha         beta         nuclear
     -   - - -        -----         -----         ----         -------
     0   0 0 0      1.000000    -24.000000    -23.000000     48.000000

     1   1 0 0      0.189030      2.565879     -2.376850      0.000000
     1   0 1 0     -0.000000     -0.000000     -0.000000      0.000000
     1   0 0 1     -0.029083     -0.184417      0.155335      0.000000

     2   2 0 0    -25.139398    -54.471002    -55.534083     84.865687
     2   1 1 0      0.000000      0.000000      0.000000      0.000000
     2   1 0 1     -0.945929      0.316616     -1.112453     -0.150092
     2   0 2 0    -26.387491    -13.765749    -12.621742      0.000000
     2   0 1 1     -0.000000      0.000000     -0.000000      0.000000
     2   0 0 2    -20.955941   -165.136641   -140.990463    285.171163


 Parallel integral file used       4 records with       0 large values


 Task  times  cpu:        5.2s     wall:        6.4s
 Summary of allocated global arrays
-----------------------------------
  No active global arrays



                         GA Statistics for process    0
                         ------------------------------

       create   destroy   get      put      acc     scatter   gather  read&inc
calls: 3804     3804     3.07e+05 1.29e+05 1.05e+05  896        0      764     
number of processes/call 1.00e+00 1.00e+00 1.00e+00 1.00e+00 0.00e+00
bytes total:             4.14e+08 1.16e+08 1.30e+08 5.89e+06 0.00e+00 3.06e+03
bytes remote:            0.00e+00 0.00e+00 0.00e+00 0.00e+00 0.00e+00 0.00e+00
Max memory consumed for GA by this process: 72258164 bytes
MA_summarize_allocated_blocks: starting scan ...
heap block 'grid', handle 115, address 0xa96a760c:
	type of elements:		double precision
	number of elements:		700473
	address of client space:	0xa96a7680
	index for client space:		-218086189
	total number of bytes:		5603904
MA_summarize_allocated_blocks: scan completed: 1 heap block, 0 stack blocks
MA usage statistics:

	allocation statistics:
					      heap	     stack
					      ----	     -----
	current number of blocks	         1	         0
	maximum number of blocks	        21	        52
	current total bytes		   5603904	         0
	maximum total bytes		  11388868	  22510812
	maximum total K-bytes		     11389	     22511
	maximum total M-bytes		        12	        23


                                NWChem Input Module
                                -------------------





                                     CITATION
                                     --------
                Please cite the following reference when publishing
                           results obtained with NWChem:

                 M. Valiev, E.J. Bylaska, N. Govind, K. Kowalski,
              T.P. Straatsma, H.J.J. van Dam, D. Wang, J. Nieplocha,
                        E. Apra, T.L. Windus, W.A. de Jong
                 "NWChem: a comprehensive and scalable open-source
                  solution for large scale molecular simulations"
                      Comput. Phys. Commun. 181, 1477 (2010)
                           doi:10.1016/j.cpc.2010.04.018

                                      AUTHORS
                                      -------
          E. Apra, E. J. Bylaska, W. A. de Jong, N. Govind, K. Kowalski,
       T. P. Straatsma, M. Valiev, H. J. J. van Dam, D. Wang, T. L. Windus,
        J. Hammond, J. Autschbach, K. Bhaskaran-Nair, J. Brabec, K. Lopata,
        S. Krishnamoorthy, W. Ma, M. Klemm, O. Villa, Y. Chen, V. Anisimov,
    F. Aquino, S. Hirata, M. T. Hackler, T. Risthaus, M. Malagoli, A. Marenich,
   A. Otero-de-la-Roza, J. Mullin, P. Nichols, R. Peverati, J. Pittner, Y. Zhao,
         P.-D. Fan, A. Fonari, R. J. Harrison, M. Dupuis, D. Silverstein,
    D. M. A. Smith, J. Nieplocha, V. Tipparaju, M. Krishnan, B. E. Van Kuiken,
        A. Vazquez-Mayagoitia, L. Jensen, M. Swart, Q. Wu, T. Van Voorhis,
     A. A. Auer, M. Nooijen, L. D. Crosby, E. Brown, G. Cisneros, G. I. Fann,
   H. Fruchtl, J. Garza, K. Hirao, R. A. Kendall, J. A. Nichols, K. Tsemekhman,
    K. Wolinski, J. Anchell, D. E. Bernholdt, P. Borowski, T. Clark, D. Clerc,
   H. Dachsel, M. J. O. Deegan, K. Dyall, D. Elwood, E. Glendening, M. Gutowski,
   A. C. Hess, J. Jaffe, B. G. Johnson, J. Ju, R. Kobayashi, R. Kutteh, Z. Lin,
   R. Littlefield, X. Long, B. Meng, T. Nakajima, S. Niu, L. Pollack, M. Rosing,
   K. Glaesemann, G. Sandrone, M. Stave, H. Taylor, G. Thomas, J. H. van Lenthe,
                               A. T. Wong, Z. Zhang.

 Total times  cpu:       79.5s     wall:       90.9s
