 argument  1 = S3_init.inp



============================== echo of input deck ==============================
echo

title "S_3 geometry optimization in 3-21g (cc-pvdz) basis set, probably better output"

start testTDDFT_anf

# S3 ...

geometry units au

   symmetry c1
   s   1.88043804     0.00000000     0.00143614
   s  -0.93796933     0.00000000    -2.98595443
   s  -0.94246871     0.00000000     2.98451829

end

basis "ao basis" spherical
   s  library 6-31g
end

DFT
 cgmin
 odft
 mult 1
END

TDDFT
   CIS
   notriplet
   NROOTS 10
   CIVECS
   GRAD
      ROOT 1
   END
END
task tddft optimize

scf
   print vectors
   print "overlap"
end
task scf
================================================================================


                                         
                                         


              Northwest Computational Chemistry Package (NWChem) 6.5
              ------------------------------------------------------


                    Environmental Molecular Sciences Laboratory
                       Pacific Northwest National Laboratory
                                Richland, WA 99352

                              Copyright (c) 1994-2014
                       Pacific Northwest National Laboratory
                            Battelle Memorial Institute

             NWChem is an open-source computational chemistry package
                        distributed under the terms of the
                      Educational Community License (ECL) 2.0
             A copy of the license is included with this distribution
                              in the LICENSE.TXT file

                                  ACKNOWLEDGMENT
                                  --------------

            This software and its documentation were developed at the
            EMSL at Pacific Northwest National Laboratory, a multiprogram
            national laboratory, operated for the U.S. Department of Energy
            by Battelle under Contract Number DE-AC05-76RL01830. Support
            for this work was provided by the Department of Energy Office
            of Biological and Environmental Research, Office of Basic
            Energy Sciences, and the Office of Advanced Scientific Computing.


           Job information
           ---------------

    hostname        = S205
    program         = /home/hubert/Downloads/nwchem-6.5/bin/LINUX/nwchem
    date            = Tue Aug  4 09:15:28 2015

    compiled        = dom_lug_19_17:19:23_2015
    source          = /home/hubert/Downloads/nwchem-6.5
    nwchem branch   = 6.5
    nwchem revision = 26243
    ga revision     = 10506
    input           = S3_init.inp
    prefix          = testTDDFT_anf.
    data base       = ./testTDDFT_anf.db
    status          = startup
    nproc           =        1
    time left       =     -1s



           Memory information
           ------------------

    heap     =   13107194 doubles =    100.0 Mbytes
    stack    =   13107195 doubles =    100.0 Mbytes
    global   =   26214400 doubles =    200.0 Mbytes (distinct from heap & stack)
    total    =   52428789 doubles =    400.0 Mbytes
    verify   = yes
    hardfail = no 


           Directory information
           ---------------------

  0 permanent = .
  0 scratch   = .




                                NWChem Input Module
                                -------------------


  S_3 geometry optimization in 3-21g (cc-pvdz) basis set, probably better output
  ------------------------------------------------------------------------------
 Turning off AUTOSYM since
 SYMMETRY directive was detected!


          ------
          auto-z
          ------


                             Geometry "geometry" -> ""
                             -------------------------

 Output coordinates in a.u. (scale by  1.000000000 to convert to a.u.)

  No.       Tag          Charge          X              Y              Z
 ---- ---------------- ---------- -------------- -------------- --------------
    1 s                   16.0000     1.88043804     0.00000000     0.00143614
    2 s                   16.0000    -0.93796933     0.00000000    -2.98595443
    3 s                   16.0000    -0.94246871     0.00000000     2.98451829

      Atomic Mass 
      ----------- 

      s                 31.972070


 Effective nuclear repulsion energy (a.u.)     167.5417504505

            Nuclear Dipole moment (a.u.) 
            ----------------------------
        X                 Y               Z
 ---------------- ---------------- ----------------
     0.0000000000     0.0000000000     0.0000000000



                                Z-matrix (autoz)
                                -------- 

 Units are Angstrom for bonds and degrees for angles

      Type          Name      I     J     K     L     M      Value
      ----------- --------  ----- ----- ----- ----- ----- ----------
    1 Stretch                  1     2                       2.17336
    2 Stretch                  1     3                       2.17334
    3 Bend                     2     1     3                93.24745


            XYZ format geometry
            -------------------
     3
 geometry
 s                     0.99508503     0.00000000     0.00075997
 s                    -0.49635203     0.00000000    -1.58009915
 s                    -0.49873300     0.00000000     1.57933918

 ==============================================================================
                                internuclear distances
 ------------------------------------------------------------------------------
       center one      |      center two      | atomic units |       a.u.
 ------------------------------------------------------------------------------
    2 s                |   1 s                |     4.10706  |     4.10706
    3 s                |   1 s                |     4.10702  |     4.10702
 ------------------------------------------------------------------------------
                         number of included internuclear distances:          2
 ==============================================================================



 ==============================================================================
                                 internuclear angles
 ------------------------------------------------------------------------------
        center 1       |       center 2       |       center 3       |  degrees
 ------------------------------------------------------------------------------
    2 s                |   1 s                |   3 s                |    93.25
 ------------------------------------------------------------------------------
                            number of included internuclear angles:          1
 ==============================================================================



                      Basis "ao basis" -> "" (spherical)
                      -----
  s (Sulphur)
  -----------
            Exponent  Coefficients 
       -------------- ---------------------------------------------------------
  1 S  2.19171000E+04  0.001869
  1 S  3.30149000E+03  0.014230
  1 S  7.54146000E+02  0.069696
  1 S  2.12711000E+02  0.238487
  1 S  6.79896000E+01  0.483307
  1 S  2.30515000E+01  0.338074

  2 S  4.23735000E+02 -0.002377
  2 S  1.00710000E+02 -0.031693
  2 S  3.21599000E+01 -0.113317
  2 S  1.18079000E+01  0.056090
  2 S  4.63110000E+00  0.592255
  2 S  1.87025000E+00  0.455006

  3 P  4.23735000E+02  0.004061
  3 P  1.00710000E+02  0.030681
  3 P  3.21599000E+01  0.130452
  3 P  1.18079000E+01  0.327205
  3 P  4.63110000E+00  0.452851
  3 P  1.87025000E+00  0.256042

  4 S  2.61584000E+00 -0.250374
  4 S  9.22167000E-01  0.066957
  4 S  3.41287000E-01  1.054510

  5 P  2.61584000E+00 -0.014511
  5 P  9.22167000E-01  0.310263
  5 P  3.41287000E-01  0.754483

  6 S  1.17167000E-01  1.000000

  7 P  1.17167000E-01  1.000000



 Summary of "ao basis" -> "" (spherical)
 ------------------------------------------------------------------------------
       Tag                 Description            Shells   Functions and Types
 ---------------- ------------------------------  ------  ---------------------
 s                           6-31g                   7       13   4s3p


 tddft_input: filename not found; default name will be used


                           NWChem Geometry Optimization
                           ----------------------------




  S_3 geometry optimization in 3-21g (cc-pvdz) basis set, probably better output


 maximum gradient threshold         (gmax) =   0.000450
 rms gradient threshold             (grms) =   0.000300
 maximum cartesian step threshold   (xmax) =   0.001800
 rms cartesian step threshold       (xrms) =   0.001200
 fixed trust radius                (trust) =   0.300000
 maximum step size to saddle      (sadstp) =   0.100000
 energy precision                  (eprec) =   1.0D-07
 maximum number of steps          (nptopt) =   20
 initial hessian option           (inhess) =    0
 line search option               (linopt) =    1
 hessian update option            (modupd) =    1
 saddle point option              (modsad) =    0
 initial eigen-mode to follow     (moddir) =    0
 initial variable to follow       (vardir) =    0
 follow first negative mode     (firstneg) =    T
 apply conjugacy                    (opcg) =    F
 source of zmatrix                         =   autoz   


          -------------------
          Energy Minimization
          -------------------


 Names of Z-matrix variables 
    1              2              3         

 Variables with the same non-blank name are constrained to be equal


 Using old Hessian from previous optimization

          --------
          Step   0
          --------


                         Geometry "geometry" -> "geometry"
                         ---------------------------------

 Output coordinates in a.u. (scale by  1.000000000 to convert to a.u.)

  No.       Tag          Charge          X              Y              Z
 ---- ---------------- ---------- -------------- -------------- --------------
    1 s                   16.0000     1.88043804     0.00000000     0.00143614
    2 s                   16.0000    -0.93796933     0.00000000    -2.98595443
    3 s                   16.0000    -0.94246871     0.00000000     2.98451829

      Atomic Mass 
      ----------- 

      s                 31.972070


 Effective nuclear repulsion energy (a.u.)     167.5417504505

            Nuclear Dipole moment (a.u.) 
            ----------------------------
        X                 Y               Z
 ---------------- ---------------- ----------------
     0.0000000000     0.0000000000     0.0000000000


                                 NWChem DFT Module
                                 -----------------


  S_3 geometry optimization in 3-21g (cc-pvdz) basis set, probably better output




 Summary of "ao basis" -> "ao basis" (spherical)
 ------------------------------------------------------------------------------
       Tag                 Description            Shells   Functions and Types
 ---------------- ------------------------------  ------  ---------------------
 s                           6-31g                   7       13   4s3p


  Caching 1-el integrals 

            General Information
            -------------------
          SCF calculation type: DFT
          Wavefunction type:  spin polarized.
          No. of atoms     :     3
          No. of electrons :    48
           Alpha electrons :    24
            Beta electrons :    24
          Charge           :     0
          Spin multiplicity:     1
          Use of symmetry is: off; symmetry adaption is: off
          Maximum number of iterations:  30
          AO basis - number of functions:    39
                     number of shells:    21
          Convergence on energy requested: 1.00D-06
          Convergence on density requested: 1.00D-05
          Convergence on gradient requested: 5.00D-04

              XC Information
              --------------
                        Slater Exchange Functional  1.000 local    
                      VWN V Correlation Functional  1.000 local    

             Grid Information
             ----------------
          Grid used for XC integration:  medium    
          Radial quadrature: Mura-Knowles        
          Angular quadrature: Lebedev. 
          Tag              B.-S. Rad. Rad. Pts. Rad. Cut. Ang. Pts.
          ---              ---------- --------- --------- ---------
          s                   1.00       88          10.0       590
          Grid pruning is: on 
          Number of quadrature shells:   264
          Spatial weights used:  Erf1

          Convergence Information
          -----------------------
          Convergence aids based upon iterative change in 
          total energy or number of iterations. 
          Levelshifting, if invoked, occurs when the 
          HOMO/LUMO gap drops below (HL_TOL): 1.00D-02
          DIIS, if invoked, will attempt to extrapolate 
          using up to (NFOCK): 10 stored Fock matrices.

                    Damping( 0%)  Levelshifting(0.5)       DIIS
                  --------------- ------------------- ---------------
          dE  on:    start            ASAP                start   
          dE off:    2 iters         30 iters            30 iters 


      Screening Tolerance Information
      -------------------------------
          Density screening/tol_rho: 1.00D-10
          AO Gaussian exp screening on grid/accAOfunc:  14
          CD Gaussian exp screening on grid/accCDfunc:  20
          XC Gaussian exp screening on grid/accXCfunc:  20
          Schwarz screening/accCoul: 1.00D-08


      Superposition of Atomic Density Guess
      -------------------------------------

 Sum of atomic energies:       -1192.36704286

      Non-variational initial energy
      ------------------------------

 Total energy =   -1192.330260
 1-e energy   =   -1982.919037
 2-e energy   =     623.047027
 HOMO         =      -0.243576
 LUMO         =      -0.195314



 ----------------------------------------------
         Quadratically convergent UKS

 Convergence threshold     :          5.000E-04
 Maximum no. of iterations :           30
 Integral*density screening:          1.000E-07
 ----------------------------------------------


 Integral file          = ./testTDDFT_anf.aoints.0
 Record size in doubles =    65536    No. of integs per rec  =    43688
 Max. records in memory =       11    Max. records in file   = ********
 No. of bits per label  =        8    No. of bits per value  =       64


 #quartets = 2.194D+04 #integrals = 1.333D+05 #direct =  0.0% #cached =100.0%


 Grid_pts file          = ./testTDDFT_anf.gridpts.0
 Record size in doubles =  12289        No. of grid_pts per rec  =   3070
 Max. records in memory =     57        Max. recs in file   = *********


              iter       energy          gnorm     gmax       time
             ----- ------------------- --------- --------- --------
                 1    -1190.1327313869  1.03D+00  2.90D-01      3.8
  Setting level-shift to   2.30 to force positive preconditioner
                 2    -1190.2863457041  2.27D-01  5.97D-02      4.8
  Setting level-shift to   2.04 to force positive preconditioner
                 3    -1190.2990225752  9.09D-02  1.72D-02      6.8
  Setting level-shift to   2.02 to force positive preconditioner
                 4    -1190.3007117302  5.92D-02  2.09D-02      8.7
  Setting level-shift to   2.02 to force positive preconditioner
                 5    -1190.3013200300  3.61D-02  9.35D-03     10.6
  Setting level-shift to   2.01 to force positive preconditioner
                 6    -1190.3016088351  2.49D-02  1.05D-02     12.6
  Setting level-shift to   2.02 to force positive preconditioner
                 7    -1190.3017614765  1.66D-02  5.31D-03     14.6
  Setting level-shift to   2.01 to force positive preconditioner
                 8    -1190.3018465389  1.27D-02  5.54D-03     16.5
  Setting level-shift to   2.02 to force positive preconditioner
                 9    -1190.3018967292  9.88D-03  3.33D-03     18.5
  Setting level-shift to   2.01 to force positive preconditioner
                10    -1190.3019275577  8.39D-03  2.98D-03     20.5
  Setting level-shift to   2.02 to force positive preconditioner
                11    -1190.3019471605  6.68D-03  2.34D-03     22.5
  Setting level-shift to   2.01 to force positive preconditioner
                12    -1190.3019599260  5.82D-03  2.04D-03     24.5
  Setting level-shift to   2.02 to force positive preconditioner
                13    -1190.3019683886  4.60D-03  1.65D-03     26.6
  Setting level-shift to   2.01 to force positive preconditioner
                14    -1190.3019740760  4.05D-03  1.43D-03     28.7
  Setting level-shift to   2.02 to force positive preconditioner
                15    -1190.3019779350  3.18D-03  1.16D-03     30.8
  Setting level-shift to   2.01 to force positive preconditioner
                16    -1190.3019805736  2.81D-03  1.00D-03     32.9
  Setting level-shift to   2.02 to force positive preconditioner
                17    -1190.3019823871  2.20D-03  8.09D-04     34.9
  Setting level-shift to   2.01 to force positive preconditioner
                18    -1190.3019836386  1.96D-03  7.03D-04     36.8
  Setting level-shift to   2.02 to force positive preconditioner
                19    -1190.3019845047  1.53D-03  5.67D-04     38.9
  Setting level-shift to   2.01 to force positive preconditioner
                20    -1190.3019851054  1.36D-03  4.92D-04     40.9
  Setting level-shift to   2.01 to force positive preconditioner
                21    -1190.3019855227  1.06D-03  3.97D-04     42.9
  Setting level-shift to   2.01 to force positive preconditioner
                22    -1190.3019858128  9.51D-04  3.45D-04     44.9
  Setting level-shift to   2.01 to force positive preconditioner
                23    -1190.3019860147  7.41D-04  2.77D-04     47.0
  Setting level-shift to   2.01 to force positive preconditioner
                24    -1190.3019861553  6.63D-04  2.41D-04     49.0
  Setting level-shift to   2.01 to force positive preconditioner
                25    -1190.3019862532  5.17D-04  1.94D-04     51.1
  Setting level-shift to   2.01 to force positive preconditioner
                26    -1190.3019863215  4.62D-04  1.69D-04     53.3


         Total DFT energy =    -1190.301986321459
      One electron energy =    -1981.897442666035
           Coulomb energy =      696.845841628691
    Exchange-Corr. energy =      -72.792135734646
 Nuclear repulsion energy =      167.541750450531

 Numeric. integr. density =       48.000001358592

     Total iterative time =     52.0s



                    DFT Final Alpha Molecular Orbital Analysis
                    ------------------------------------------

 Vector    1  Occ=1.000000D+00  E=-8.783468D+01
              MO Center=  1.0D+00,  5.8D-16,  7.6D-04, r^2= 3.6D-03
   Bfn.  Coefficient  Atom+Function         Bfn.  Coefficient  Atom+Function  
  ----- ------------  ---------------      ----- ------------  ---------------
     1    0.996217843813      1 S  s                  2    0.138265845092E-01  1 S  s          
     6   -0.569532547085E-02  1 S  s                 10    0.488230566280E-02  1 S  s          
    11   -0.140166416283E-02  1 S  px                23   -0.132299479842E-02  2 S  s          
    36   -0.132303762633E-02  3 S  s                 26   -0.569583054120E-03  2 S  pz         
    39    0.568789396975E-03  3 S  pz                24   -0.533507466704E-03  2 S  px         
    37   -0.534384424942E-03  3 S  px                 7    0.294185708941E-03  1 S  px         
    19    0.229150782283E-03  2 S  s                 32    0.229158585534E-03  3 S  s          
    14   -0.139058116849E-03  2 S  s                 27   -0.139080212994E-03  3 S  s          
     3   -0.116314645012E-03  1 S  px                20    0.331008117163E-04  2 S  px         
    33    0.330683662255E-04  3 S  px                22   -0.271424330253E-04  2 S  pz         
    35    0.271849565577E-04  3 S  pz                16   -0.189026884704E-04  2 S  px         
    29   -0.189171664962E-04  3 S  px                18   -0.790166781968E-05  2 S  pz         
    31    0.787534346327E-05  3 S  pz                15    0.736305610921E-05  2 S  s          
    28    0.736037700081E-05  3 S  s                 13   -0.104705799742E-05  1 S  pz         
     9    0.223573861150E-06  1 S  pz                 5   -0.868239683680E-07  1 S  pz         
    25    0.714684391752E-12  2 S  py                34    0.567871517987E-12  3 S  py         
     8   -0.409780726463E-12  1 S  py                21   -0.307916791979E-12  2 S  py         
    38   -0.282456318430E-12  3 S  py                30   -0.168575663224E-12  3 S  py         
    12    0.466160474397E-13  1 S  py                17    0.463536924484E-13  2 S  py         
     4    0.294006994587E-13  1 S  py         

 Vector    2  Occ=1.000000D+00  E=-8.774562D+01
              MO Center= -5.0D-01, -1.3D-14,  6.2D-02, r^2= 2.5D+00
   Bfn.  Coefficient  Atom+Function         Bfn.  Coefficient  Atom+Function  
  ----- ------------  ---------------      ----- ------------  ---------------
    27   -0.718221474635      3 S  s                 14    0.690372698357      2 S  s          
    28   -0.998220024140E-02  3 S  s                 15    0.959424078440E-02  2 S  s          
    32    0.397480536974E-02  3 S  s                 19   -0.383772889361E-02  2 S  s          
    36   -0.293476999295E-02  3 S  s                 23    0.285475927124E-02  2 S  s          
    13    0.901712389431E-03  1 S  pz                39    0.797294389144E-03  3 S  pz         
    26    0.790004970142E-03  2 S  pz                37   -0.420897598170E-03  3 S  px         
    24    0.407047766585E-03  2 S  px                35   -0.211934499374E-03  3 S  pz         
    22   -0.209613334865E-03  2 S  pz                33    0.822146945930E-04  3 S  px         
    20   -0.786286713651E-04  2 S  px                 9   -0.742877746225E-04  1 S  pz         
    31    0.554781319577E-04  3 S  pz                18    0.541436670758E-04  2 S  pz         
    29   -0.400752842072E-04  3 S  px                16    0.384016286974E-04  2 S  px         
     5    0.332676841246E-04  1 S  pz                10    0.201978110990E-04  1 S  s          
    11   -0.632102760824E-05  1 S  px                 1   -0.427409418392E-05  1 S  s          
     6   -0.374612136391E-05  1 S  s                  3   -0.453521348542E-06  1 S  px         
     7    0.367759848015E-06  1 S  px                 2    0.158446484628E-06  1 S  s          
    21   -0.272368226635E-11  2 S  py                25    0.245861379917E-11  2 S  py         
    38   -0.513681110195E-12  3 S  py                17   -0.292644495490E-12  2 S  py         
    30    0.120497752425E-12  3 S  py                 8    0.505232412675E-13  1 S  py         
    12   -0.379676080631E-13  1 S  py                34    0.355367547813E-13  3 S  py         
     4   -0.351951427791E-13  1 S  py         

 Vector    3  Occ=1.000000D+00  E=-8.774559D+01
              MO Center= -5.0D-01, -1.2D-14, -6.3D-02, r^2= 2.5D+00
   Bfn.  Coefficient  Atom+Function         Bfn.  Coefficient  Atom+Function  
  ----- ------------  ---------------      ----- ------------  ---------------
    14    0.718233112359      2 S  s                 27    0.690384805573      3 S  s          
    15    0.100052190663E-01  2 S  s                 28    0.961818733486E-02  3 S  s          
    19   -0.354383424028E-02  2 S  s                 32   -0.338937045734E-02  3 S  s          
    23    0.207967532520E-02  2 S  s                 36    0.196521391240E-02  3 S  s          
    10   -0.101917370407E-02  1 S  s                 24    0.327534564541E-03  2 S  px         
    37    0.311454028802E-03  3 S  px                11    0.284140147253E-03  1 S  px         
     1    0.215348343923E-03  1 S  s                 26    0.215677738759E-03  2 S  pz         
     6    0.188838789180E-03  1 S  s                 39   -0.183809751129E-03  3 S  pz         
    20   -0.845054841736E-04  2 S  px                33   -0.813950944466E-04  3 S  px         
    22   -0.660224336265E-04  2 S  pz                35    0.575596574135E-04  3 S  pz         
    16    0.410888984441E-04  2 S  px                29    0.395839522764E-04  3 S  px         
    18    0.363596113811E-04  2 S  pz                31   -0.341310775964E-04  3 S  pz         
     3    0.215773820592E-04  1 S  px                13    0.180411796503E-04  1 S  pz         
     7   -0.154317307685E-04  1 S  px                 2   -0.796068962304E-05  1 S  s          
     9   -0.147382046908E-05  1 S  pz                 5    0.672442815836E-06  1 S  pz         
    21   -0.311868908186E-11  2 S  py                25    0.301397027232E-11  2 S  py         
    38   -0.461945757216E-12  3 S  py                17   -0.244171122714E-12  2 S  py         
    12   -0.140782098658E-12  1 S  py                34    0.135491064206E-12  3 S  py         
    30   -0.105803065447E-12  3 S  py                 8   -0.552006166221E-13  1 S  py         
     4    0.132160104115E-14  1 S  py         

 Vector    4  Occ=1.000000D+00  E=-7.767909D+00
              MO Center=  9.9D-01, -8.5D-12,  7.6D-04, r^2= 7.7D-02
   Bfn.  Coefficient  Atom+Function         Bfn.  Coefficient  Atom+Function  
  ----- ------------  ---------------      ----- ------------  ---------------
     2     1.02527716899      1 S  s                  1   -0.281345145461      1 S  s          
     6    0.501175404497E-01  1 S  s                 10   -0.327653517819E-01  1 S  s          
     3   -0.127340488453E-01  1 S  px                11    0.934163771014E-02  1 S  px         
    23    0.857574469487E-02  2 S  s                 36    0.857600800817E-02  3 S  s          
    26    0.370418970939E-02  2 S  pz                39   -0.369906933784E-02  3 S  pz         
    24    0.343657693193E-02  2 S  px                37    0.344226761653E-02  3 S  px         
     7   -0.297614171881E-02  1 S  px                19   -0.158021840204E-02  2 S  s          
    32   -0.158026878154E-02  3 S  s                 15   -0.717581163120E-03  2 S  s          
    28   -0.717612830079E-03  3 S  s                 20   -0.320518790989E-03  2 S  px         
    33   -0.320515168882E-03  3 S  px                14    0.137175264731E-03  2 S  s          
    27    0.137184696628E-03  3 S  s                 16    0.117038808119E-03  2 S  px         
    29    0.117148825745E-03  3 S  px                18    0.607805733949E-04  2 S  pz         
    31   -0.606211176539E-04  3 S  pz                35   -0.382984358517E-04  3 S  pz         
    22    0.378617206065E-04  2 S  pz                 5   -0.942732778790E-05  1 S  pz         
    13    0.698595002356E-05  1 S  pz                 9   -0.223185778703E-05  1 S  pz         
     4   -0.285608550623E-10  1 S  py                 8   -0.429066538655E-11  1 S  py         
    25   -0.192171235186E-11  2 S  py                12    0.190397386067E-11  1 S  py         
    38   -0.153846021854E-11  3 S  py                21    0.384376742055E-12  2 S  py         
    34    0.219062738296E-12  3 S  py                17   -0.136865877941E-12  2 S  py         
    30   -0.166258596087E-14  3 S  py         

 Vector    5  Occ=1.000000D+00  E=-7.680922D+00
              MO Center= -5.0D-01,  3.1D-11,  2.4D-02, r^2= 2.6D+00
   Bfn.  Coefficient  Atom+Function         Bfn.  Coefficient  Atom+Function  
  ----- ------------  ---------------      ----- ------------  ---------------
    28   -0.730459096449      3 S  s                 15    0.719355004766      2 S  s          
    27    0.200482729559      3 S  s                 14   -0.197433333014      2 S  s          
    32   -0.350218353459E-01  3 S  s                 19    0.345301781642E-01  2 S  s          
    36    0.198555799048E-01  3 S  s                 23   -0.196361287309E-01  2 S  s          
    13   -0.594465661783E-02  1 S  pz                26   -0.523557352177E-02  2 S  pz         
    39   -0.525515382859E-02  3 S  pz                29   -0.500303143997E-02  3 S  px         
    16    0.492050744323E-02  2 S  px                31    0.428004474824E-02  3 S  pz         
    18    0.422072427722E-02  2 S  pz                37    0.288314083498E-02  3 S  px         
    24   -0.283971548570E-02  2 S  px                35    0.177243888609E-02  3 S  pz         
    22    0.176019395380E-02  2 S  pz                33   -0.978896350358E-03  3 S  px         
    20    0.961062032451E-03  2 S  px                 9    0.644750054838E-03  1 S  pz         
     5   -0.208864656422E-03  1 S  pz                10   -0.546068694654E-04  1 S  s          
    11    0.202507400240E-04  1 S  px                 6    0.109196276090E-04  1 S  s          
     2   -0.841281260703E-05  1 S  s                  1    0.258780444326E-05  1 S  s          
     7   -0.249810737588E-05  1 S  px                 3    0.136825468048E-05  1 S  px         
    25    0.128841155477E-08  2 S  py                12   -0.269351057269E-09  1 S  py         
    21   -0.179044921205E-09  2 S  py                38    0.150249262955E-09  3 S  py         
    17    0.102906300440E-09  2 S  py                34   -0.762051119271E-10  3 S  py         
    30    0.300562424772E-10  3 S  py                 4    0.343721739674E-11  1 S  py         
     8    0.204882033770E-11  1 S  py         

 Vector    6  Occ=1.000000D+00  E=-7.680831D+00
              MO Center= -5.0D-01,  2.7D-11, -2.5D-02, r^2= 2.6D+00
   Bfn.  Coefficient  Atom+Function         Bfn.  Coefficient  Atom+Function  
  ----- ------------  ---------------      ----- ------------  ---------------
    15    0.730304517142      2 S  s                 28    0.719198031850      3 S  s          
    14   -0.200554784805      2 S  s                 27   -0.197506497811      3 S  s          
    19    0.323543870115E-01  2 S  s                 32    0.318216100614E-01  3 S  s          
    23   -0.144623861710E-01  2 S  s                 36   -0.141599937968E-01  3 S  s          
    10    0.709847617552E-02  1 S  s                 16    0.499025074143E-02  2 S  px         
    29    0.492102846586E-02  3 S  px                18    0.438924202686E-02  2 S  pz         
    31   -0.431675775718E-02  3 S  pz                24   -0.232820502334E-02  2 S  px         
    37   -0.228677974436E-02  3 S  px                11   -0.204618145767E-02  1 S  px         
    26   -0.159829722138E-02  2 S  pz                39    0.151444890678E-02  3 S  pz         
     6   -0.141969623570E-02  1 S  s                  2    0.109269241627E-02  1 S  s          
    20    0.993853953640E-03  2 S  px                33    0.980300522075E-03  3 S  px         
    22    0.908657316217E-03  2 S  pz                35   -0.880093436620E-03  3 S  pz         
     1   -0.336313871767E-03  1 S  s                  7    0.258225572990E-03  1 S  px         
     3   -0.156796973212E-03  1 S  px                13   -0.470106520721E-04  1 S  pz         
     9    0.508308097128E-05  1 S  pz                 5   -0.170786457141E-05  1 S  pz         
    25    0.130803737430E-08  2 S  py                12   -0.272523401934E-09  1 S  py         
    21   -0.182198615173E-09  2 S  py                38    0.152576859065E-09  3 S  py         
    17    0.104630676970E-09  2 S  py                34   -0.796822150907E-10  3 S  py         
    30   -0.338597922201E-11  3 S  py                 4    0.239087859561E-11  1 S  py         
     8    0.130514833145E-11  1 S  py         

 Vector    7  Occ=1.000000D+00  E=-5.822516D+00
              MO Center=  1.0D+00, -3.0D-15,  7.6D-04, r^2= 6.9D-02
   Bfn.  Coefficient  Atom+Function         Bfn.  Coefficient  Atom+Function  
  ----- ------------  ---------------      ----- ------------  ---------------
     5    0.989573854241      1 S  pz                 9    0.350880996761E-01  1 S  pz         
    13   -0.140348098331E-01  1 S  pz                23   -0.334192011056E-02  2 S  s          
    36    0.334220088715E-02  3 S  s                 24   -0.212904833865E-02  2 S  px         
    37    0.212910400184E-02  3 S  px                20    0.854772331639E-03  2 S  px         
    33   -0.855412045706E-03  3 S  px                 3   -0.783627005126E-03  1 S  px         
    19    0.619771135727E-03  2 S  s                 32   -0.619836337621E-03  3 S  s          
    22    0.369394715133E-03  2 S  pz                35    0.368178383706E-03  3 S  pz         
    18   -0.254721401165E-03  2 S  pz                31   -0.254702231584E-03  3 S  pz         
    15   -0.190945775383E-03  2 S  s                 28    0.190961398557E-03  3 S  s          
    16   -0.110001684223E-03  2 S  px                29    0.110497701632E-03  3 S  px         
    14    0.445202641803E-04  2 S  s                 27   -0.445231982007E-04  3 S  s          
     7   -0.277925796286E-04  1 S  px                11    0.110960397666E-04  1 S  px         
    26   -0.331961196548E-05  2 S  pz                 2   -0.727770033472E-06  1 S  s          
    10   -0.226501901457E-06  1 S  s                  1    0.198876928323E-06  1 S  s          
    39   -0.198780128598E-06  3 S  pz                 6    0.119362984266E-06  1 S  s          
     4   -0.278036858515E-08  1 S  py                 8   -0.947891159536E-10  1 S  py         
    12    0.284230695800E-10  1 S  py                30   -0.243880727521E-10  3 S  py         
    34   -0.904068094192E-11  3 S  py                38   -0.673348317929E-11  3 S  py         
    25   -0.583732645780E-11  2 S  py                21    0.274830334259E-11  2 S  py         
    17    0.159344967460E-11  2 S  py         

 Vector    8  Occ=1.000000D+00  E=-5.819671D+00
              MO Center=  1.0D+00, -3.7D-11,  7.6D-04, r^2= 6.9D-02
   Bfn.  Coefficient  Atom+Function         Bfn.  Coefficient  Atom+Function  
  ----- ------------  ---------------      ----- ------------  ---------------
     3    0.989556646147      1 S  px                 7    0.348617401284E-01  1 S  px         
     2    0.139575284114E-01  1 S  s                 11   -0.139626827500E-01  1 S  px         
    10    0.606226766840E-02  1 S  s                  1   -0.386708817774E-02  1 S  s          
    23   -0.346228518597E-02  2 S  s                 36   -0.346217650598E-02  3 S  s          
     6   -0.298236658130E-02  1 S  s                 26   -0.171453497677E-02  2 S  pz         
    39    0.171390720456E-02  3 S  pz                 5    0.783630059975E-03  1 S  pz         
    37   -0.453847904564E-03  3 S  px                24   -0.451376657748E-03  2 S  px         
    22    0.414946181942E-03  2 S  pz                35   -0.414515177254E-03  3 S  pz         
    20    0.307545739487E-03  2 S  px                33    0.308159192887E-03  3 S  px         
    19    0.298235348713E-03  2 S  s                 32    0.298245846746E-03  3 S  s          
    16   -0.232113723637E-03  2 S  px                29   -0.232544869443E-03  3 S  px         
    18   -0.206721542178E-03  2 S  pz                31    0.206458449091E-03  3 S  pz         
    15   -0.153830458863E-03  2 S  s                 28   -0.153821036848E-03  3 S  s          
    14    0.282248804789E-04  2 S  s                 27    0.282229615227E-04  3 S  s          
     9    0.275979629441E-04  1 S  pz                13   -0.110352371334E-04  1 S  pz         
     4   -0.101897472076E-07  1 S  py                 8   -0.355867351209E-09  1 S  py         
    12    0.151808698380E-09  1 S  py                30    0.733886838890E-10  3 S  py         
    38    0.305803697858E-10  3 S  py                25    0.266867420971E-10  2 S  py         
    34    0.219945521613E-10  3 S  py                17    0.116820214659E-10  2 S  py         
    21   -0.981987005763E-11  2 S  py         

 Vector    9  Occ=1.000000D+00  E=-5.818551D+00
              MO Center=  1.0D+00,  4.5D-11,  7.6D-04, r^2= 6.9D-02
   Bfn.  Coefficient  Atom+Function         Bfn.  Coefficient  Atom+Function  
  ----- ------------  ---------------      ----- ------------  ---------------
     4    0.989875289390      1 S  py                 8    0.338720822655E-01  1 S  py         
    12   -0.111595914308E-01  1 S  py                25    0.152477892897E-02  2 S  py         
    38    0.152480215408E-02  3 S  py                21   -0.348094907695E-03  2 S  py         
    34   -0.348109256978E-03  3 S  py                17   -0.129378232843E-03  2 S  py         
    30   -0.129378226352E-03  3 S  py                 3    0.101833843734E-07  1 S  px         
     5    0.278802340481E-08  1 S  pz                 7    0.334665408528E-09  1 S  px         
     2    0.178441247408E-09  1 S  s                  9    0.980739303695E-10  1 S  pz         
    11   -0.746535812938E-10  1 S  px                39    0.531278838198E-10  3 S  pz         
    36   -0.517183564246E-10  3 S  s                 31    0.488208194904E-10  3 S  pz         
     1   -0.470193657863E-10  1 S  s                 23   -0.443299770088E-10  2 S  s          
    26   -0.409678961293E-10  2 S  pz                13   -0.299143327521E-10  1 S  pz         
    19    0.292692902445E-10  2 S  s                 32    0.251675108237E-10  3 S  s          
    22    0.232813276189E-10  2 S  pz                 6    0.218832040555E-10  1 S  s          
    20    0.130394601282E-10  2 S  px                18   -0.116580698958E-10  2 S  pz         
    33    0.841002355767E-11  3 S  px                24   -0.702122732124E-11  2 S  px         
    29   -0.607908801825E-11  3 S  px                28    0.584008890344E-11  3 S  s          
    37   -0.263139149936E-11  3 S  px                10   -0.232263082422E-11  1 S  s          
    16   -0.206065030228E-11  2 S  px                15   -0.116549376424E-11  2 S  s          
    14    0.934105161116E-12  2 S  s                 27   -0.270867530797E-12  3 S  s          
    35   -0.156794537477E-12  3 S  pz         

 Vector   10  Occ=1.000000D+00  E=-5.741293D+00
              MO Center= -5.0D-01, -3.9D-12,  4.5D-02, r^2= 2.6D+00
   Bfn.  Coefficient  Atom+Function         Bfn.  Coefficient  Atom+Function  
  ----- ------------  ---------------      ----- ------------  ---------------
    29    0.520351705732      3 S  px                16    0.505020693461      2 S  px         
    31   -0.482254466744      3 S  pz                18    0.469506538433      2 S  pz         
    33    0.185172316267E-01  3 S  px                20    0.179687777609E-01  2 S  px         
    35   -0.175452812974E-01  3 S  pz                22    0.170859057954E-01  2 S  pz         
    28   -0.744530402743E-02  3 S  s                 15   -0.724029245776E-02  2 S  s          
    37   -0.633522436083E-02  3 S  px                24   -0.612223355583E-02  2 S  px         
    39    0.566202059645E-02  3 S  pz                26   -0.545261790101E-02  2 S  pz         
    10    0.319085908213E-02  1 S  s                 27    0.202910422960E-02  3 S  s          
    14    0.197144868441E-02  2 S  s                 32    0.108737620861E-02  3 S  s          
    19    0.102400716101E-02  2 S  s                 36   -0.893206383570E-03  3 S  s          
    23   -0.760824377521E-03  2 S  s                  7    0.648239266645E-03  1 S  px         
     2    0.436603841280E-03  1 S  s                 11    0.245832677232E-03  1 S  px         
     6    0.121306583569E-03  1 S  s                 13    0.508004537848E-04  1 S  pz         
     1   -0.468919779881E-04  1 S  s                  9   -0.175039388766E-04  1 S  pz         
     3   -0.165618896217E-04  1 S  px                 5    0.415089652830E-05  1 S  pz         
    17    0.641596089419E-08  2 S  py                30   -0.415853750011E-08  3 S  py         
    21    0.227153357986E-09  2 S  py                34   -0.144046181799E-09  3 S  py         
    25   -0.899807104088E-10  2 S  py                38    0.460627892662E-10  3 S  py         
     4    0.301881977874E-10  1 S  py                12    0.597080608052E-11  1 S  py         
     8    0.626095897523E-12  1 S  py         

 Vector   11  Occ=1.000000D+00  E=-5.741279D+00
              MO Center= -5.0D-01, -5.1D-12, -4.5D-02, r^2= 2.6D+00
   Bfn.  Coefficient  Atom+Function         Bfn.  Coefficient  Atom+Function  
  ----- ------------  ---------------      ----- ------------  ---------------
    16    0.520145270192      2 S  px                29   -0.506270730127      3 S  px         
    18    0.482526481330      2 S  pz                31    0.468209511488      3 S  pz         
    20    0.185937912794E-01  2 S  px                33   -0.180997721330E-01  3 S  px         
    22    0.174103611316E-01  2 S  pz                35    0.168899245955E-01  3 S  pz         
    26   -0.784723693400E-02  2 S  pz                39   -0.767693621513E-02  3 S  pz         
    15   -0.729851366755E-02  2 S  s                 24   -0.730856497227E-02  2 S  px         
    37    0.714145669477E-02  3 S  px                28    0.708985932430E-02  3 S  s          
    23   -0.474590999302E-02  2 S  s                 36    0.472077540055E-02  3 S  s          
    13   -0.362051407169E-02  1 S  pz                19    0.228048193603E-02  2 S  s          
    32   -0.225014884584E-02  3 S  s                 14    0.205324076864E-02  2 S  s          
    27   -0.199638013473E-02  3 S  s                  9    0.126239557442E-02  1 S  pz         
     5   -0.300163546209E-03  1 S  pz                10    0.473226487817E-04  1 S  s          
     7    0.830085513330E-05  1 S  px                 2    0.616887957100E-05  1 S  s          
    11    0.534107405353E-05  1 S  px                 6    0.116268238408E-05  1 S  s          
     1   -0.683130037622E-06  1 S  s                  3   -0.127851595058E-06  1 S  px         
    17    0.658883634829E-08  2 S  py                30    0.406016141029E-08  3 S  py         
    21    0.229540032238E-09  2 S  py                34    0.141362857948E-09  3 S  py         
    25   -0.868664018900E-10  2 S  py                38   -0.431666236140E-10  3 S  py         
     4   -0.209254714591E-10  1 S  py                12    0.189085212693E-10  1 S  py         
     8   -0.424404740489E-11  1 S  py         

 Vector   12  Occ=1.000000D+00  E=-5.734662D+00
              MO Center= -5.0D-01, -2.0D-11,  1.6D-01, r^2= 2.5D+00
   Bfn.  Coefficient  Atom+Function         Bfn.  Coefficient  Atom+Function  
  ----- ------------  ---------------      ----- ------------  ---------------
    30    0.733714184157      3 S  py                17   -0.664289940083      2 S  py         
    34    0.253832090996E-01  3 S  py                21   -0.230073818724E-01  2 S  py         
    38   -0.816100317512E-02  3 S  py                25    0.743949001902E-02  2 S  py         
    12    0.981828222784E-04  1 S  py                 8   -0.231947639704E-04  1 S  py         
     4    0.204626870736E-04  1 S  py                16    0.979603461029E-08  2 S  px         
    29    0.567085491603E-08  3 S  px                18   -0.148943385140E-08  2 S  pz         
    20    0.342104638392E-09  2 S  px                31   -0.232209649166E-09  3 S  pz         
    33    0.195138617601E-09  3 S  px                24   -0.115658926967E-09  2 S  px         
    15    0.752311282451E-10  2 S  s                 37   -0.594262529606E-10  3 S  px         
     3   -0.532028218113E-10  1 S  px                22   -0.478709204872E-10  2 S  pz         
    10    0.421535662190E-10  1 S  s                 23   -0.296851628179E-10  2 S  s          
    28   -0.269753102578E-10  3 S  s                 19    0.266076824316E-10  2 S  s          
    14   -0.215166607728E-10  2 S  s                  5    0.203581311143E-10  1 S  pz         
    36   -0.131618379694E-10  3 S  s                 35   -0.115360907707E-10  3 S  pz         
    39    0.114337514185E-10  3 S  pz                13   -0.111062121291E-10  1 S  pz         
    32    0.870110291743E-11  3 S  s                 27    0.755845498868E-11  3 S  s          
    26    0.661915762279E-11  2 S  pz                 6   -0.654610491633E-11  1 S  s          
     9    0.396503473443E-11  1 S  pz                 7    0.241860011257E-11  1 S  px         
     2    0.185938323750E-11  1 S  s                 11    0.377603825522E-12  1 S  px         
     1   -0.342164437104E-12  1 S  s          

 Vector   13  Occ=1.000000D+00  E=-5.734649D+00
              MO Center= -5.0D-01, -2.0D-11, -1.6D-01, r^2= 2.5D+00
   Bfn.  Coefficient  Atom+Function         Bfn.  Coefficient  Atom+Function  
  ----- ------------  ---------------      ----- ------------  ---------------
    17    0.733758729358      2 S  py                30    0.664339127526      3 S  py         
    21    0.251239996685E-01  2 S  py                34    0.227211309471E-01  3 S  py         
    25   -0.765224902334E-02  2 S  py                38   -0.687762043305E-02  3 S  py         
    12    0.197692130209E-02  1 S  py                 8   -0.466900530272E-03  1 S  py         
     4    0.411978716431E-03  1 S  py                16   -0.108450469266E-07  2 S  px         
    29    0.512864389423E-08  3 S  px                18    0.164891350637E-08  2 S  pz         
    20   -0.379709430009E-09  2 S  px                31   -0.184389577031E-09  3 S  pz         
    33    0.180923732370E-09  3 S  px                24    0.131382166134E-09  2 S  px         
    15   -0.826231535589E-10  2 S  s                 37   -0.718532824817E-10  3 S  px         
     3   -0.619867977142E-10  1 S  px                22    0.557609034335E-10  2 S  pz         
    13    0.321950437357E-10  1 S  pz                28   -0.244355100143E-10  3 S  s          
    14    0.241481673506E-10  2 S  s                  5    0.226611186507E-10  1 S  pz         
    26   -0.139111346825E-10  2 S  pz                 9   -0.125238235880E-10  1 S  pz         
    36   -0.112630428458E-10  3 S  s                 23    0.846375381677E-11  2 S  s          
    10   -0.746254083260E-11  1 S  s                 35   -0.728956807211E-11  3 S  pz         
    27    0.668509527509E-11  3 S  s                  7   -0.455196365619E-11  1 S  px         
    32    0.425816954194E-11  3 S  s                 39    0.284728137155E-11  3 S  pz         
     6    0.218479827409E-11  1 S  s                 11   -0.184250749366E-11  1 S  px         
     2   -0.168853290836E-11  1 S  s                 19    0.731542417380E-12  2 S  s          
     1    0.401658548347E-12  1 S  s          

 Vector   14  Occ=1.000000D+00  E=-5.723867D+00
              MO Center= -5.0D-01,  2.2D-13,  1.2D+00, r^2= 1.2D+00
   Bfn.  Coefficient  Atom+Function         Bfn.  Coefficient  Atom+Function  
  ----- ------------  ---------------      ----- ------------  ---------------
    31    0.675715062984      3 S  pz                29    0.625441044704      3 S  px         
    18    0.266723622280      2 S  pz                16   -0.246991173964      2 S  px         
    35    0.232661459652E-01  3 S  pz                33    0.212025033198E-01  3 S  px         
    22    0.922774338781E-02  2 S  pz                20   -0.853877009526E-02  2 S  px         
    39   -0.826478311475E-02  3 S  pz                37   -0.703797444310E-02  3 S  px         
    26   -0.449862683109E-02  2 S  pz                24    0.325956946241E-02  2 S  px         
    23   -0.207982846735E-02  2 S  s                 36    0.115362106782E-02  3 S  s          
    13    0.109826420260E-02  1 S  pz                19    0.103097400417E-02  2 S  s          
    32   -0.873511481108E-03  3 S  s                 10    0.685365355907E-03  1 S  s          
     9   -0.411604156000E-03  1 S  pz                 6   -0.318659627880E-03  1 S  s          
     5    0.313065298861E-03  1 S  pz                28   -0.220714740684E-03  3 S  s          
    15    0.151259965847E-03  2 S  s                  3    0.388619984902E-04  1 S  px         
    27    0.266690253326E-04  3 S  s                  2   -0.262627421573E-04  1 S  s          
     7   -0.140062183937E-04  1 S  px                11   -0.115746451348E-04  1 S  px         
     1   -0.839000085723E-05  1 S  s                 14    0.657696227809E-05  2 S  s          
    30   -0.463439595807E-08  3 S  py                17   -0.425779863059E-08  2 S  py         
    34   -0.156370008008E-09  3 S  py                21   -0.141955962594E-09  2 S  py         
    38    0.481091543444E-10  3 S  py                25    0.427531598940E-10  2 S  py         
     4   -0.344437731145E-10  1 S  py                12   -0.119826013066E-10  1 S  py         
     8    0.130169737028E-11  1 S  py         

 Vector   15  Occ=1.000000D+00  E=-5.723864D+00
              MO Center= -5.0D-01, -7.2D-13, -1.2D+00, r^2= 1.2D+00
   Bfn.  Coefficient  Atom+Function         Bfn.  Coefficient  Atom+Function  
  ----- ------------  ---------------      ----- ------------  ---------------
    18   -0.674473204912      2 S  pz                16    0.626795457735      2 S  px         
    31    0.266355128835      3 S  pz                29    0.247426956650      3 S  px         
    22   -0.231825876093E-01  2 S  pz                20    0.210932293450E-01  2 S  px         
    35    0.911142900797E-02  3 S  pz                33    0.816033464410E-02  3 S  px         
    26    0.709346448394E-02  2 S  pz                24   -0.660411958297E-02  2 S  px         
    37   -0.212894845368E-02  3 S  px                36   -0.176791659137E-02  3 S  s          
    10    0.157906356410E-02  1 S  s                 39   -0.156505586914E-02  3 S  pz         
     6   -0.734395035819E-03  1 S  s                 32    0.593912235146E-03  3 S  s          
    13   -0.476424799018E-03  1 S  pz                23   -0.365896344694E-03  2 S  s          
    19   -0.231760280083E-03  2 S  s                  9    0.178446139639E-03  1 S  pz         
    15   -0.160727932420E-03  2 S  s                  5   -0.135705363989E-03  1 S  pz         
     3    0.901771258702E-04  1 S  px                 2   -0.605291725321E-04  1 S  s          
    14    0.426691126550E-04  2 S  s                 27    0.339477670255E-04  3 S  s          
     7   -0.329580414171E-04  1 S  px                11   -0.246738312653E-04  1 S  px         
     1   -0.193349148261E-04  1 S  s                 28    0.599593249722E-06  3 S  s          
    17    0.107655218311E-07  2 S  py                30   -0.181818515196E-08  3 S  py         
    21    0.362417381279E-09  2 S  py                25   -0.112899514922E-09  2 S  py         
    34   -0.634200576023E-10  3 S  py                38    0.228381183080E-10  3 S  py         
     4   -0.172987122016E-10  1 S  py                12    0.119711216160E-10  1 S  py         
     8   -0.320890589094E-11  1 S  py         

 Vector   16  Occ=1.000000D+00  E=-7.964339D-01
              MO Center=  4.1D-01, -8.3D-10,  3.5D-04, r^2= 1.6D+00
   Bfn.  Coefficient  Atom+Function         Bfn.  Coefficient  Atom+Function  
  ----- ------------  ---------------      ----- ------------  ---------------
     6    0.581670172477      1 S  s                  2   -0.290654120500      1 S  s          
    19    0.265039258910      2 S  s                 32    0.265059649315      3 S  s          
    10    0.240714328963      1 S  s                  7   -0.151765541776      1 S  px         
    15   -0.130717884906      2 S  s                 28   -0.130727744926      3 S  s          
    22    0.848592402928E-01  2 S  pz                35   -0.847554398564E-01  3 S  pz         
    20    0.726268557969E-01  2 S  px                33    0.727614103730E-01  3 S  px         
     1    0.640523391910E-01  1 S  s                  3    0.600022503322E-01  1 S  px         
    11   -0.510595112721E-01  1 S  px                23    0.505343692179E-01  2 S  s          
    36    0.505386903715E-01  3 S  s                 18   -0.357235594302E-01  2 S  pz         
    31    0.356803098278E-01  3 S  pz                16   -0.301713838834E-01  2 S  px         
    29   -0.302280121738E-01  3 S  px                14    0.291513477284E-01  2 S  s          
    27    0.291535560626E-01  3 S  s                 24   -0.436143324165E-02  2 S  px         
    37   -0.436765172272E-02  3 S  px                26   -0.400501910803E-02  2 S  pz         
    39    0.399899063044E-02  3 S  pz                 9   -0.108012496342E-03  1 S  pz         
     5    0.426940844518E-04  1 S  pz                13   -0.380256409814E-04  1 S  pz         
    25   -0.233335862439E-08  2 S  py                38    0.596662023875E-09  3 S  py         
    34    0.455980818679E-09  3 S  py                21   -0.304732625037E-09  2 S  py         
    17    0.287750679566E-09  2 S  py                30   -0.199103670116E-09  3 S  py         
     4    0.597680615852E-10  1 S  py                12    0.534550589449E-10  1 S  py         
     8    0.248913387867E-11  1 S  py         

 Vector   17  Occ=1.000000D+00  E=-6.561443D-01
              MO Center= -2.2D-01, -6.1D-09, -2.1D-04, r^2= 3.0D+00
   Bfn.  Coefficient  Atom+Function         Bfn.  Coefficient  Atom+Function  
  ----- ------------  ---------------      ----- ------------  ---------------
    19    0.506667613238      2 S  s                 32   -0.506655249903      3 S  s          
    15   -0.250303805331      2 S  s                 28    0.250297325656      3 S  s          
    23    0.216967629467      2 S  s                 36   -0.216964085216      3 S  s          
     9   -0.213571167736      1 S  pz                 5    0.854150842772E-01  1 S  pz         
    20    0.767623367460E-01  2 S  px                33   -0.768509951043E-01  3 S  px         
    22    0.585944010786E-01  2 S  pz                35    0.584755121307E-01  3 S  pz         
    14    0.551530023662E-01  2 S  s                 27   -0.551515886461E-01  3 S  s          
    16   -0.294752399094E-01  2 S  px                29    0.295087922715E-01  3 S  px         
    26    0.228773990730E-01  2 S  pz                39    0.228478162669E-01  3 S  pz         
    18   -0.223230816691E-01  2 S  pz                31   -0.222772561846E-01  3 S  pz         
    13   -0.215323802129E-01  1 S  pz                24    0.192413579353E-01  2 S  px         
    37   -0.192759379097E-01  3 S  px                 7    0.161190922314E-03  1 S  px         
     3   -0.645242840441E-04  1 S  px                11    0.144206679312E-04  1 S  px         
     6    0.117538075478E-04  1 S  s                 10    0.798027616667E-05  1 S  s          
     2   -0.607820332436E-05  1 S  s                  1    0.130903992071E-05  1 S  s          
    25   -0.546289372915E-08  2 S  py                21   -0.140049381391E-08  2 S  py         
    38    0.134575565652E-08  3 S  py                34    0.129540285253E-08  3 S  py         
    17    0.904425582842E-09  2 S  py                30   -0.538458234279E-09  3 S  py         
     8   -0.223852907304E-09  1 S  py                12    0.147564249539E-09  1 S  py         
     4    0.103692686109E-09  1 S  py         

 Vector   18  Occ=1.000000D+00  E=-5.817025D-01
              MO Center=  2.7D-02, -2.4D-09,  2.3D-05, r^2= 3.4D+00
   Bfn.  Coefficient  Atom+Function         Bfn.  Coefficient  Atom+Function  
  ----- ------------  ---------------      ----- ------------  ---------------
     6    0.504185233307      1 S  s                 19   -0.457348614574      2 S  s          
    32   -0.457350195664      3 S  s                 10    0.235667460057      1 S  s          
     2   -0.229241856078      1 S  s                 15    0.220769841344      2 S  s          
    28    0.220770677479      3 S  s                 23   -0.216345032615      2 S  s          
    36   -0.216348138867      3 S  s                  7    0.829497844817E-01  1 S  px         
     1    0.513637081225E-01  1 S  s                 14   -0.487609919896E-01  2 S  s          
    27   -0.487611625617E-01  3 S  s                  3   -0.367892559176E-01  1 S  px         
    20    0.246565276082E-01  2 S  px                33    0.246670043453E-01  3 S  px         
    11    0.154207395843E-01  1 S  px                16   -0.119866125474E-01  2 S  px         
    29   -0.119933096900E-01  3 S  px                26   -0.870054573685E-02  2 S  pz         
    39    0.870221602833E-02  3 S  pz                22    0.662501381074E-02  2 S  pz         
    35   -0.658819998371E-02  3 S  pz                18   -0.426455909042E-02  2 S  pz         
    31    0.424669799405E-02  3 S  pz                24    0.667736044618E-03  2 S  px         
    37    0.653707973849E-03  3 S  px                 9    0.614341775106E-04  1 S  pz         
     5   -0.272207788729E-04  1 S  pz                13    0.124330423384E-04  1 S  pz         
    25    0.563930259367E-08  2 S  py                21    0.193343252562E-08  2 S  py         
    38   -0.146772601203E-08  3 S  py                34   -0.142670480116E-08  3 S  py         
    17   -0.109732092715E-08  2 S  py                30    0.590926372463E-09  3 S  py         
    12   -0.902127536480E-10  1 S  py                 4   -0.539513710353E-10  1 S  py         
     8   -0.213069204938E-10  1 S  py         

 Vector   19  Occ=1.000000D+00  E=-3.904249D-01
              MO Center=  2.7D-02, -2.5D-09,  2.8D-05, r^2= 3.7D+00
   Bfn.  Coefficient  Atom+Function         Bfn.  Coefficient  Atom+Function  
  ----- ------------  ---------------      ----- ------------  ---------------
     9    0.541647314587      1 S  pz                20   -0.270936697849      2 S  px         
    33    0.271219231285      3 S  px                19    0.216166310877      2 S  s          
    32   -0.216166575836      3 S  s                  5   -0.203159040654      1 S  pz         
    13    0.190555194182      1 S  pz                22   -0.180303782851      2 S  pz         
    35   -0.179890559610      3 S  pz                23    0.138886772684      2 S  s          
    36   -0.138891290618      3 S  s                 16    0.105795898757      2 S  px         
    29   -0.105906576671      3 S  px                15   -0.986561344802E-01  2 S  s          
    28    0.986569666998E-01  3 S  s                 24   -0.888592737831E-01  2 S  px         
    37    0.889582482662E-01  3 S  px                18    0.707795109425E-01  2 S  pz         
    31    0.706182375020E-01  3 S  pz                26   -0.652945557889E-01  2 S  pz         
    39   -0.651560946985E-01  3 S  pz                14    0.219285021630E-01  2 S  s          
    27   -0.219286348024E-01  3 S  s                  7   -0.410971642495E-03  1 S  px         
     3    0.154103792011E-03  1 S  px                11   -0.144067439897E-03  1 S  px         
     6   -0.211774777013E-05  1 S  s                 10   -0.147042796893E-05  1 S  s          
     2    0.124111717449E-05  1 S  s                  1   -0.253925040128E-06  1 S  s          
    25   -0.544563906988E-08  2 S  py                21   -0.516431671422E-08  2 S  py         
     8   -0.435284094820E-08  1 S  py                17    0.219794400466E-08  2 S  py         
    12   -0.203720581279E-08  1 S  py                 4    0.168675898854E-08  1 S  py         
    38    0.853899278734E-09  3 S  py                34    0.520763181176E-09  3 S  py         
    30   -0.203814320977E-09  3 S  py         

 Vector   20  Occ=1.000000D+00  E=-3.753645D-01
              MO Center=  5.2D-01, -6.1D-09,  4.1D-04, r^2= 3.4D+00
   Bfn.  Coefficient  Atom+Function         Bfn.  Coefficient  Atom+Function  
  ----- ------------  ---------------      ----- ------------  ---------------
     7    0.564142213014      1 S  px                22   -0.276001974599      2 S  pz         
    35    0.275868326726      3 S  pz                11    0.258165583570      1 S  px         
     3   -0.213912068285      1 S  px                 6    0.166231818021      1 S  s          
    23    0.147829654329      2 S  s                 36    0.147835441965      3 S  s          
    19    0.142725739425      2 S  s                 32    0.142726556709      3 S  s          
    18    0.108498028703      2 S  pz                31   -0.108447237725      3 S  pz         
    20   -0.950999242524E-01  2 S  px                33   -0.955150840184E-01  3 S  px         
    26   -0.892238736391E-01  2 S  pz                39    0.892202320863E-01  3 S  pz         
     2   -0.712749081326E-01  1 S  s                 15   -0.712966816274E-01  2 S  s          
    28   -0.712978045275E-01  3 S  s                 10    0.641462872108E-01  1 S  s          
    16    0.360877383317E-01  2 S  px                29    0.362511173906E-01  3 S  px         
     1    0.161948438544E-01  1 S  s                 14    0.153270484385E-01  2 S  s          
    27    0.153272383445E-01  3 S  s                 37   -0.342072347279E-02  3 S  px         
    24   -0.328885857862E-02  2 S  px                 9    0.427969306626E-03  1 S  pz         
    13    0.195921754266E-03  1 S  pz                 5   -0.162311467726E-03  1 S  pz         
     8   -0.118850408834E-07  1 S  py                21   -0.717441401145E-08  2 S  py         
    12   -0.551910262835E-08  1 S  py                25   -0.522527519689E-08  2 S  py         
     4    0.447094126234E-08  1 S  py                17    0.291189673594E-08  2 S  py         
    34   -0.289404411089E-08  3 S  py                30    0.114626888242E-08  3 S  py         
    38   -0.104590014328E-08  3 S  py         

 Vector   21  Occ=1.000000D+00  E=-3.587981D-01
              MO Center=  5.7D-01,  6.4D-09,  4.6D-04, r^2= 2.4D+00
   Bfn.  Coefficient  Atom+Function         Bfn.  Coefficient  Atom+Function  
  ----- ------------  ---------------      ----- ------------  ---------------
     8    0.607518989775      1 S  py                12    0.295594719650      1 S  py         
    21    0.244060757596      2 S  py                34    0.244075001844      3 S  py         
     4   -0.230620286657      1 S  py                25    0.115306551505      2 S  py         
    38    0.115312832270      3 S  py                17   -0.957519819855E-01  2 S  py         
    30   -0.957574738626E-01  3 S  py                 7    0.105033843488E-07  1 S  px         
    19    0.103301869029E-07  2 S  s                 22   -0.739196790048E-08  2 S  pz         
    26   -0.512751676244E-08  2 S  pz                35    0.462475888269E-08  3 S  pz         
    10    0.432691834357E-08  1 S  s                  9    0.418101417715E-08  1 S  pz         
     3   -0.406263145397E-08  1 S  px                15   -0.399660464330E-08  2 S  s          
    20   -0.391584609053E-08  2 S  px                11    0.359642600574E-08  1 S  px         
    18    0.299972620065E-08  2 S  pz                36    0.243922905987E-08  3 S  s          
    24   -0.214135952741E-08  2 S  px                 6    0.189596349842E-08  1 S  s          
    31   -0.173897030311E-08  3 S  pz                 5   -0.155166497634E-08  1 S  pz         
    16    0.153483695267E-08  2 S  px                 2   -0.128977545791E-08  1 S  s          
    14    0.101842464613E-08  2 S  s                 37    0.820318539029E-09  3 S  px         
    39    0.754592450793E-09  3 S  pz                23   -0.706482132423E-09  2 S  s          
    28   -0.622981262921E-09  3 S  s                 32    0.582772809636E-09  3 S  s          
    33    0.513085514723E-09  3 S  px                 1    0.252038394643E-09  1 S  s          
    29   -0.228266440099E-09  3 S  px                13   -0.209797591814E-09  1 S  pz         
    27    0.110189003873E-09  3 S  s          

 Vector   22  Occ=1.000000D+00  E=-2.578210D-01
              MO Center= -4.9D-01,  1.3D-11, -3.4D-04, r^2= 3.9D+00
   Bfn.  Coefficient  Atom+Function         Bfn.  Coefficient  Atom+Function  
  ----- ------------  ---------------      ----- ------------  ---------------
    20    0.445659885567      2 S  px                33    0.445361867968      3 S  px         
    24    0.253020757260      2 S  px                37    0.252812778489      3 S  px         
    22   -0.198596393693      2 S  pz                35    0.199289153896      3 S  pz         
    16   -0.169539286817      2 S  px                29   -0.169420993706      3 S  px         
     7   -0.146408453030      1 S  px                26   -0.137877944516      2 S  pz         
    39    0.138278617091      3 S  pz                10   -0.988907059332E-01  1 S  s          
     6   -0.974468192795E-01  1 S  s                 18    0.785945127040E-01  2 S  pz         
    31   -0.788584681285E-01  3 S  pz                 3    0.522569309839E-01  1 S  px         
     2    0.434090796172E-01  1 S  s                 11   -0.408268059641E-01  1 S  px         
    19    0.275625681957E-01  2 S  s                 32    0.275652164303E-01  3 S  s          
     1   -0.957323363872E-02  1 S  s                 23   -0.871135595828E-02  2 S  s          
    36   -0.871535248106E-02  3 S  s                 15   -0.476670265568E-02  2 S  s          
    28   -0.476673236185E-02  3 S  s                 14    0.161762121366E-02  2 S  s          
    27    0.161771019436E-02  3 S  s                  9   -0.115028907231E-03  1 S  pz         
     5    0.410827355596E-04  1 S  pz                13   -0.320654277264E-04  1 S  pz         
    21    0.125089501833E-06  2 S  py                34   -0.121514432665E-06  3 S  py         
    25    0.724587396618E-07  2 S  py                38   -0.686633408074E-07  3 S  py         
    17   -0.475842602291E-07  2 S  py                30    0.461338061738E-07  3 S  py         
     8   -0.333523061122E-08  1 S  py                12   -0.188506450590E-08  1 S  py         
     4    0.118718069956E-08  1 S  py         

 Vector   23  Occ=1.000000D+00  E=-2.575482D-01
              MO Center= -5.0D-01,  1.2D-08, -4.0D-04, r^2= 4.0D+00
   Bfn.  Coefficient  Atom+Function         Bfn.  Coefficient  Atom+Function  
  ----- ------------  ---------------      ----- ------------  ---------------
    21    0.519793962239      2 S  py                34   -0.519788088567      3 S  py         
    25    0.295405221602      2 S  py                38   -0.295401762457      3 S  py         
    17   -0.197384676814      2 S  py                30    0.197382258258      3 S  py         
     8    0.864594872662E-05  1 S  py                12    0.601173278752E-05  1 S  py         
     4   -0.321863977168E-05  1 S  py                20   -0.108651573060E-06  2 S  px         
    33   -0.105967325977E-06  3 S  px                37   -0.602380801496E-07  3 S  px         
    24   -0.599243521969E-07  2 S  px                35   -0.498013707089E-07  3 S  pz         
    16    0.412345180854E-07  2 S  px                22    0.405698721414E-07  2 S  pz         
    29    0.403154407685E-07  3 S  px                 7    0.355203387931E-07  1 S  px         
    39   -0.339439615887E-07  3 S  pz                26    0.288751680733E-07  2 S  pz         
    10    0.228487575923E-07  1 S  s                  6    0.220716896452E-07  1 S  s          
    31    0.196363010508E-07  3 S  pz                18   -0.161225752400E-07  2 S  pz         
    23    0.158929052701E-07  2 S  s                  3   -0.126140186083E-07  1 S  px         
     2   -0.100202996528E-07  1 S  s                 11    0.100285752747E-07  1 S  px         
    19   -0.813388069310E-08  2 S  s                 32   -0.658035739324E-08  3 S  s          
    15   -0.284686940928E-08  2 S  s                  1    0.219566575586E-08  1 S  s          
    36    0.192045511954E-08  3 S  s                  9    0.124818744397E-08  1 S  pz         
    28    0.120481331012E-08  3 S  s                 13    0.487111687678E-09  1 S  pz         
     5   -0.411697746063E-09  1 S  pz                27   -0.396213533774E-09  3 S  s          
    14    0.266510423313E-09  2 S  s          

 Vector   24  Occ=1.000000D+00  E=-2.187945D-01
              MO Center= -4.6D-01, -2.3D-10, -4.1D-04, r^2= 4.2D+00
   Bfn.  Coefficient  Atom+Function         Bfn.  Coefficient  Atom+Function  
  ----- ------------  ---------------      ----- ------------  ---------------
    22    0.479097283260      2 S  pz                35    0.479465718455      3 S  pz         
    26    0.284670302662      2 S  pz                39    0.284863000424      3 S  pz         
    20   -0.252597232100      2 S  px                33    0.251857276047      3 S  px         
    18   -0.178974608523      2 S  pz                31   -0.179115499758      3 S  pz         
    24   -0.134662156855      2 S  px                37    0.134227662470      3 S  px         
    16    0.969907910633E-01  2 S  px                29   -0.967146988304E-01  3 S  px         
    13    0.919731745180E-01  1 S  pz                19    0.451245017501E-01  2 S  s          
    32   -0.451299382504E-01  3 S  s                 23    0.404251034249E-01  2 S  s          
    36   -0.404247585772E-01  3 S  s                  9   -0.157514804831E-01  1 S  pz         
    15   -0.144544005537E-01  2 S  s                 28    0.144555843694E-01  3 S  s          
    14    0.357844754591E-02  2 S  s                 27   -0.357881383294E-02  3 S  s          
     5    0.191725887012E-02  1 S  pz                11   -0.718538200220E-04  1 S  px         
     7    0.112740168247E-04  1 S  px                 3   -0.111836976404E-05  1 S  px         
    10    0.384055407905E-06  1 S  s                  6   -0.292324449853E-06  1 S  s          
     2   -0.100663997160E-06  1 S  s                 34   -0.625439827126E-08  3 S  py         
    38   -0.386075952150E-08  3 S  py                 8    0.339936029743E-08  1 S  py         
     1    0.255086854720E-08  1 S  s                 30    0.237446452322E-08  3 S  py         
    12    0.205708048130E-08  1 S  py                21    0.192642305451E-08  2 S  py         
     4   -0.125212176607E-08  1 S  py                25   -0.786904751818E-09  2 S  py         
    17   -0.609935497813E-09  2 S  py         

 Vector   25  Occ=0.000000D+00  E=-2.262324D-01
              MO Center= -7.3D-02, -3.7D-10, -5.5D-05, r^2= 3.8D+00
   Bfn.  Coefficient  Atom+Function         Bfn.  Coefficient  Atom+Function  
  ----- ------------  ---------------      ----- ------------  ---------------
     8    0.475114253664      1 S  py                21   -0.448391160112      2 S  py         
    34   -0.448392189900      3 S  py                25   -0.275864911779      2 S  py         
    38   -0.275866169487      3 S  py                12    0.260742689087      1 S  py         
     4   -0.171814885764      1 S  py                17    0.168880273776      2 S  py         
    30    0.168880540282      3 S  py                23    0.124486082114E-07  2 S  s          
    19   -0.110551638852E-07  2 S  s                 10   -0.816248185658E-08  1 S  s          
    24    0.613302508170E-08  2 S  px                20    0.539434774539E-08  2 S  px         
    11    0.392779715168E-08  1 S  px                22   -0.382750480657E-08  2 S  pz         
    26    0.326415353857E-08  2 S  pz                35   -0.321416339260E-08  3 S  pz         
    13    0.248522379653E-08  1 S  pz                15    0.230908398566E-08  2 S  s          
    16   -0.211004669808E-08  2 S  px                18    0.123323677304E-08  2 S  pz         
    37    0.120432593381E-08  3 S  px                33    0.110890224558E-08  3 S  px         
    31    0.106519418704E-08  3 S  pz                32    0.984599126460E-09  3 S  s          
    39   -0.958114255686E-09  3 S  pz                14   -0.831233698470E-09  2 S  s          
     6    0.672408412612E-09  1 S  s                  2    0.537612252843E-09  1 S  s          
    29   -0.401332976961E-09  3 S  px                36    0.281562784983E-09  3 S  s          
     7    0.260237519242E-09  1 S  px                28   -0.129029891690E-09  3 S  s          
     9   -0.824265089087E-10  1 S  pz                 5    0.686383911060E-10  1 S  pz         
     3   -0.526872544414E-10  1 S  px                27    0.514829643875E-10  3 S  s          
     1   -0.466190952967E-10  1 S  s          

 Vector   26  Occ=0.000000D+00  E=-1.325487D-01
              MO Center=  2.6D-02,  2.6D-10, -1.6D-03, r^2= 4.0D+00
   Bfn.  Coefficient  Atom+Function         Bfn.  Coefficient  Atom+Function  
  ----- ------------  ---------------      ----- ------------  ---------------
    11    0.570511447286      1 S  px                 7    0.530680752912      1 S  px         
    10   -0.523547857248      1 S  s                 26    0.375888544768      2 S  pz         
    39   -0.375047067758      3 S  pz                22    0.371132182523      2 S  pz         
    35   -0.370380379452      3 S  pz                 6   -0.303100830555      1 S  s          
    23    0.281239162885      2 S  s                 36    0.280777984545      3 S  s          
    24    0.268446879763      2 S  px                37    0.268335849649      3 S  px         
    20    0.244336712912      2 S  px                33    0.244138550802      3 S  px         
     3   -0.186723826449      1 S  px                18   -0.135247707975      2 S  pz         
    31    0.134975521737      3 S  pz                 2    0.118580712797      1 S  s          
    16   -0.888333949988E-01  2 S  px                29   -0.887635293702E-01  3 S  px         
    19    0.866582744113E-01  2 S  s                 32    0.864207808724E-01  3 S  s          
    15   -0.468832888210E-01  2 S  s                 28   -0.467804001623E-01  3 S  s          
     1   -0.268466345031E-01  1 S  s                 14    0.944095379853E-02  2 S  s          
    27    0.941848077057E-02  3 S  s                 13    0.100564384865E-02  1 S  pz         
     9    0.957951652060E-03  1 S  pz                 5   -0.339377812629E-03  1 S  pz         
    21    0.459325872051E-08  2 S  py                17   -0.153503036425E-08  2 S  py         
    12   -0.531738049987E-09  1 S  py                 8   -0.416447464132E-09  1 S  py         
     4    0.190024182425E-09  1 S  py                34   -0.158900443359E-09  3 S  py         
    38    0.611372878117E-10  3 S  py                30    0.564674989001E-10  3 S  py         
    25    0.291481376572E-10  2 S  py         

 Vector   27  Occ=0.000000D+00  E=-1.297945D-01
              MO Center=  1.6D-01,  2.7D-10,  1.7D-03, r^2= 3.9D+00
   Bfn.  Coefficient  Atom+Function         Bfn.  Coefficient  Atom+Function  
  ----- ------------  ---------------      ----- ------------  ---------------
    13    0.612101119766      1 S  pz                 9    0.585904129968      1 S  pz         
    20    0.398683945278      2 S  px                33   -0.399461149520      3 S  px         
    24    0.361007120093      2 S  px                37   -0.361877600565      3 S  px         
    23    0.249641600878      2 S  s                 36   -0.250190070531      3 S  s          
    26    0.233567723824      2 S  pz                39    0.233738841259      3 S  pz         
     5   -0.208277810410      1 S  pz                22    0.204565590501      2 S  pz         
    35    0.204662992324      3 S  pz                16   -0.144092657858      2 S  px         
    29    0.144373429448      3 S  px                19    0.128185403783      2 S  s          
    32   -0.128353793041      3 S  s                 18   -0.735215327334E-01  2 S  pz         
    31   -0.735588961305E-01  3 S  pz                15   -0.550864369404E-01  2 S  s          
    28    0.551768721357E-01  3 S  s                 14    0.120576392151E-01  2 S  s          
    27   -0.120758694004E-01  3 S  s                 11   -0.101337468979E-02  1 S  px         
     7   -0.948321807193E-03  1 S  px                10    0.510658016165E-03  1 S  s          
     3    0.335059184287E-03  1 S  px                 6    0.292219019453E-03  1 S  s          
     2   -0.114092272240E-03  1 S  s                  1    0.258384393432E-04  1 S  s          
    21    0.323979306661E-08  2 S  py                34   -0.157434111294E-08  3 S  py         
    17   -0.109315862145E-08  2 S  py                38   -0.628941779248E-09  3 S  py         
    30    0.576979424843E-09  3 S  py                 8    0.180884424375E-09  1 S  py         
    25    0.123704412410E-09  2 S  py                12   -0.668158325545E-10  1 S  py         
     4   -0.574933134356E-10  1 S  py         

 Vector   28  Occ=0.000000D+00  E= 2.021504D-01
              MO Center=  5.0D-01,  1.4D-09,  3.9D-04, r^2= 5.2D+00
   Bfn.  Coefficient  Atom+Function         Bfn.  Coefficient  Atom+Function  
  ----- ------------  ---------------      ----- ------------  ---------------
    23     1.07836633021      2 S  s                 36     1.07837295926      3 S  s          
    19   -0.920460724978      2 S  s                 32   -0.920467903259      3 S  s          
     6   -0.792772399946      1 S  s                 11    0.709849096311      1 S  px         
     7   -0.429031036502      1 S  px                10    0.334976295251      1 S  s          
    26    0.130193128833      2 S  pz                39   -0.130083968550      3 S  pz         
     3    0.113059131451      1 S  px                 2    0.862207642597E-01  1 S  s          
    15    0.764399053036E-01  2 S  s                 28    0.764402595340E-01  3 S  s          
    24    0.718213203733E-01  2 S  px                37    0.720216042142E-01  3 S  px         
    22   -0.614472112436E-01  2 S  pz                35    0.614167858901E-01  3 S  pz         
    14   -0.428175577001E-01  2 S  s                 27   -0.428178453439E-01  3 S  s          
     1   -0.391869545975E-01  1 S  s                 18    0.173959617002E-01  2 S  pz         
    31   -0.173898556765E-01  3 S  pz                33   -0.167216685619E-01  3 S  px         
    20   -0.166235197447E-01  2 S  px                29    0.290247451604E-02  3 S  px         
    16    0.287503050049E-02  2 S  px                13    0.548009342677E-03  1 S  pz         
     9   -0.331681423121E-03  1 S  pz                 5    0.868574788807E-04  1 S  pz         
    34    0.114541305684E-07  3 S  py                38   -0.899162764304E-08  3 S  py         
    12    0.546119157419E-08  1 S  py                21   -0.486615162365E-08  2 S  py         
     8   -0.478449916166E-08  1 S  py                25    0.391902119292E-08  2 S  py         
    30   -0.317734894209E-08  3 S  py                17    0.126954007134E-08  2 S  py         
     4    0.124155039987E-08  1 S  py         

 Vector   29  Occ=0.000000D+00  E= 2.596844D-01
              MO Center=  1.9D-02,  1.2D-08,  7.8D-05, r^2= 7.3D+00
   Bfn.  Coefficient  Atom+Function         Bfn.  Coefficient  Atom+Function  
  ----- ------------  ---------------      ----- ------------  ---------------
    13    0.930731805113      1 S  pz                 9   -0.691239341804      1 S  pz         
    19    0.635893422980      2 S  s                 32   -0.635932926262      3 S  s          
    26    0.618721934392      2 S  pz                39    0.618445889341      3 S  pz         
    22   -0.502271194361      2 S  pz                35   -0.502226074620      3 S  pz         
    23   -0.336462068867      2 S  s                 36    0.336446784576      3 S  s          
    24    0.212405668043      2 S  px                37   -0.213433073822      3 S  px         
     5    0.171078829641      1 S  pz                18    0.131348347623      2 S  pz         
[...]
     9    0.240388210369E-03  1 S  pz                 5   -0.557454265726E-04  1 S  pz         
    27    0.796905475663E-05  3 S  s                 14    0.714433635074E-05  2 S  s          
    25    0.160455122004E-13  2 S  py                21   -0.144348307201E-13  2 S  py         
    38   -0.138313693688E-13  3 S  py                34    0.124633238502E-13  3 S  py         
    17    0.371365363112E-14  2 S  py                30   -0.325342975657E-14  3 S  py         
    12   -0.149065282439E-14  1 S  py                 8    0.955913370269E-15  1 S  py         
     4   -0.846837380714E-16  1 S  py         

 Vector   34  Occ=0.000000D+00  E= 5.381054D-01
              MO Center=  4.6D-02,  2.0D-15,  3.0D-04, r^2= 6.0D+00
   Bfn.  Coefficient  Atom+Function         Bfn.  Coefficient  Atom+Function  
  ----- ------------  ---------------      ----- ------------  ---------------
    12     1.14342334485      1 S  py                25   -0.863818489713      2 S  py         
    38   -0.864022828559      3 S  py                 8   -0.765435945135      1 S  py         
    21    0.662749292412      2 S  py                34    0.662931256845      3 S  py         
     4    0.180470130329      1 S  py                17   -0.160941785130      2 S  py         
    30   -0.160986154580      3 S  py                26   -0.285615089117E-13  2 S  pz         
    39   -0.238005751126E-13  3 S  pz                24   -0.232717813945E-13  2 S  px         
    37    0.198238071559E-13  3 S  px                22    0.192310978440E-13  2 S  pz         
    20    0.188575940973E-13  2 S  px                33   -0.177915693542E-13  3 S  px         
    35    0.163449060072E-13  3 S  pz                36   -0.136461163195E-13  3 S  s          
    13    0.116170162080E-13  1 S  pz                32    0.101753853593E-13  3 S  s          
     9   -0.849831996806E-14  1 S  pz                23    0.798453404759E-14  2 S  s          
    19   -0.770750844598E-14  2 S  s                 10    0.655913195181E-14  1 S  s          
    18   -0.430045667921E-14  2 S  pz                16   -0.425644058656E-14  2 S  px         
    29    0.405439481466E-14  3 S  px                31   -0.358045445868E-14  3 S  pz         
     6   -0.266231682932E-14  1 S  s                 11   -0.122349617615E-14  1 S  px         
     5    0.792248792394E-15  1 S  pz                 7   -0.771883642421E-15  1 S  px         
    15    0.707307299121E-15  2 S  s                 28   -0.661063552239E-15  3 S  s          
     3    0.511241165147E-15  1 S  px                27    0.429505431417E-15  3 S  s          
    14   -0.354005901647E-15  2 S  s                  1   -0.952449987964E-16  1 S  s          
     2    0.220850124394E-16  1 S  s          

 Vector   35  Occ=0.000000D+00  E= 5.493136D-01
              MO Center= -5.0D-01, -1.6D-16, -6.8D-04, r^2= 6.0D+00
   Bfn.  Coefficient  Atom+Function         Bfn.  Coefficient  Atom+Function  
  ----- ------------  ---------------      ----- ------------  ---------------
    25    0.952445227788      2 S  py                38   -0.952254417783      3 S  py         
    21   -0.864795470673      2 S  py                34    0.864642062771      3 S  py         
    17    0.210076167053      2 S  py                30   -0.210038846602      3 S  py         
    12   -0.105000633644E-03  1 S  py                 8    0.669584269441E-04  1 S  py         
     4   -0.155066759672E-04  1 S  py                10   -0.519504932227E-12  1 S  s          
    36    0.245553170908E-12  3 S  s                 23    0.243406746888E-12  2 S  s          
    37    0.233943606040E-12  3 S  px                24    0.227311732656E-12  2 S  px         
     6    0.178918054409E-12  1 S  s                 26    0.149791684985E-12  2 S  pz         
    39   -0.150342396656E-12  3 S  pz                33   -0.127982445429E-12  3 S  px         
    20   -0.123366961338E-12  2 S  px                32   -0.120179879162E-12  3 S  s          
    19   -0.119485271349E-12  2 S  s                 11    0.703549473232E-13  1 S  px         
     7    0.688465379616E-13  1 S  px                22   -0.669617141993E-13  2 S  pz         
    35    0.669099162803E-13  3 S  pz                29    0.298462797501E-13  3 S  px         
    16    0.288183092851E-13  2 S  px                18    0.157643585758E-13  2 S  pz         
    31   -0.157532022114E-13  3 S  pz                 3   -0.140745404987E-13  1 S  px         
     1    0.624151530967E-14  1 S  s                 14   -0.413393639963E-14  2 S  s          
    27   -0.414806332982E-14  3 S  s                 13   -0.127313676239E-14  1 S  pz         
     2    0.548712465209E-15  1 S  s                 28   -0.357186771972E-15  3 S  s          
     9   -0.318582216437E-15  1 S  pz                15   -0.278972148880E-15  2 S  s          
     5    0.861835743160E-16  1 S  pz         

 Vector   36  Occ=0.000000D+00  E= 5.550734D-01
              MO Center=  4.1D-02, -1.3D-15,  5.9D-05, r^2= 6.2D+00
   Bfn.  Coefficient  Atom+Function         Bfn.  Coefficient  Atom+Function  
  ----- ------------  ---------------      ----- ------------  ---------------
    10     2.30514491571      1 S  s                 23    -1.20158871540      2 S  s          
    36    -1.20179530415      3 S  s                 24    -1.07449657024      2 S  px         
    37    -1.07550573635      3 S  px                 6   -0.762408400143      1 S  s          
    19    0.661965550200      2 S  s                 32    0.662052313349      3 S  s          
    26   -0.625812329753      2 S  pz                39    0.624219231233      3 S  pz         
    20    0.592726820650      2 S  px                33    0.593122750622      3 S  px         
     7   -0.386713982069      1 S  px                22    0.269607733742      2 S  pz         
    35   -0.268700009682      3 S  pz                11   -0.210344996383      1 S  px         
    16   -0.137107428860      2 S  px                29   -0.137199985466      3 S  px         
     3    0.799231125950E-01  1 S  px                18   -0.629455903947E-01  2 S  pz         
    31    0.627360312234E-01  3 S  pz                 1   -0.265182073304E-01  1 S  s          
    14    0.239696180227E-01  2 S  s                 27    0.239728300606E-01  3 S  s          
    15   -0.714440628448E-02  2 S  s                 28   -0.714574228072E-02  3 S  s          
     2   -0.378099715274E-02  1 S  s                  9   -0.357321121473E-03  1 S  pz         
     5    0.756579186058E-04  1 S  pz                13   -0.269293235780E-04  1 S  pz         
    25    0.199317305688E-12  2 S  py                38   -0.196516246502E-12  3 S  py         
    21   -0.181199176702E-12  2 S  py                34    0.179769676397E-12  3 S  py         
    17    0.440206098150E-13  2 S  py                30   -0.436992830717E-13  3 S  py         
    12   -0.332271334625E-14  1 S  py                 8    0.238141783903E-14  1 S  py         
     4   -0.640018360349E-15  1 S  py         

 Vector   37  Occ=0.000000D+00  E= 5.832824D-01
              MO Center= -1.8D-01,  3.1D-16, -2.5D-04, r^2= 7.0D+00
   Bfn.  Coefficient  Atom+Function         Bfn.  Coefficient  Atom+Function  
  ----- ------------  ---------------      ----- ------------  ---------------
    13     1.47172901062      1 S  pz                24     1.22025403652      2 S  px         
    37    -1.22004160033      3 S  px                23    0.797986061559      2 S  s          
    36   -0.797975188109      3 S  s                 20   -0.723498589831      2 S  px         
    33    0.723135940259      3 S  px                 9   -0.551157334560      1 S  pz         
    19   -0.277755518094      2 S  s                 32    0.277730186053      3 S  s          
    35    0.207992129382      3 S  pz                22    0.206911179841      2 S  pz         
    16    0.172844385174      2 S  px                29   -0.172767455396      3 S  px         
     5    0.128827663681      1 S  pz                39   -0.108734738974      3 S  pz         
    26   -0.106900122281      2 S  pz                31   -0.433957778027E-01  3 S  pz         
    18   -0.431381461648E-01  2 S  pz                14   -0.983035791317E-02  2 S  s          
    27    0.982944467496E-02  3 S  s                 11   -0.113685656283E-02  1 S  px         
     7    0.435435796330E-03  1 S  px                15    0.275060387349E-03  2 S  s          
    28   -0.274690790319E-03  3 S  s                  3   -0.101683386318E-03  1 S  px         
    10    0.107142803341E-05  1 S  s                  2    0.450800846414E-06  1 S  s          
     6   -0.387059403739E-06  1 S  s                  1   -0.631188001412E-07  1 S  s          
    38   -0.889829212643E-14  3 S  py                 8   -0.713667289628E-14  1 S  py         
    34    0.556565899390E-14  3 S  py                25   -0.502942298550E-14  2 S  py         
    12    0.446720778423E-14  1 S  py                 4    0.226041482571E-14  1 S  py         
    21    0.125746915272E-14  2 S  py                30   -0.103254504047E-14  3 S  py         
    17    0.203222522118E-15  2 S  py         

 Vector   38  Occ=0.000000D+00  E= 6.471134D-01
              MO Center=  3.7D-01,  5.3D-16,  2.8D-04, r^2= 3.6D+00
   Bfn.  Coefficient  Atom+Function         Bfn.  Coefficient  Atom+Function  
  ----- ------------  ---------------      ----- ------------  ---------------
    10     3.18839669577      1 S  s                  6    -1.76588419775      1 S  s          
    11    -1.75186394790      1 S  px                23    -1.40682862689      2 S  s          
    36    -1.40662065093      3 S  s                  7    0.630192315775      1 S  px         
    22   -0.466125464372      2 S  pz                35    0.465991762862      3 S  pz         
    24   -0.368689345512      2 S  px                37   -0.369004861533      3 S  px         
    19    0.314962156148      2 S  s                 32    0.314816535806      3 S  s          
    26   -0.229700714569      2 S  pz                39    0.229013722243      3 S  pz         
    33   -0.127411800863      3 S  px                20   -0.126712041818      2 S  px         
     3   -0.125021302038      1 S  px                18    0.108153526632      2 S  pz         
    31   -0.108125217151      3 S  pz                 1   -0.600814234309E-01  1 S  s          
    29    0.263730482947E-01  3 S  px                16    0.262116680050E-01  2 S  px         
    15    0.249248561398E-01  2 S  s                 28    0.249263110952E-01  3 S  s          
    14    0.820939636444E-02  2 S  s                 27    0.820418273994E-02  3 S  s          
     2   -0.752533376459E-02  1 S  s                 13   -0.138663300151E-02  1 S  pz         
     9    0.494997803480E-03  1 S  pz                 5   -0.991227838675E-04  1 S  pz         
    25    0.208176318905E-14  2 S  py                38   -0.198226894881E-14  3 S  py         
    21   -0.191817542034E-14  2 S  py                34    0.164969393922E-14  3 S  py         
    12    0.524313350312E-15  1 S  py                 8   -0.493109754048E-15  1 S  py         
    17    0.387131952389E-15  2 S  py                 4    0.316140505697E-15  1 S  py         
    30   -0.295951847352E-15  3 S  py         

 Vector   39  Occ=0.000000D+00  E= 6.851616D-01
              MO Center= -5.4D-01,  5.0D-16, -4.6D-04, r^2= 4.8D+00
   Bfn.  Coefficient  Atom+Function         Bfn.  Coefficient  Atom+Function  
  ----- ------------  ---------------      ----- ------------  ---------------
    23     1.92283049074      2 S  s                 36    -1.92296495565      3 S  s          
    26     1.33202499175      2 S  pz                39     1.33141927239      3 S  pz         
    19    -1.20684913352      2 S  s                 32     1.20686205771      3 S  s          
    13    0.758020294313      1 S  pz                22   -0.639509442624      2 S  pz         
    35   -0.639292761260      3 S  pz                37   -0.408074747347      3 S  px         
    24    0.406038853039      2 S  px                18    0.134936296836      2 S  pz         
    31    0.134890449824      3 S  pz                 9    0.125078562261      1 S  pz         
    33    0.101852137669      3 S  px                20   -0.100914871018      2 S  px         
    14   -0.434526298827E-01  2 S  s                 27    0.434525898879E-01  3 S  s          
    29   -0.205769674603E-01  3 S  px                16    0.203796403825E-01  2 S  px         
     5   -0.190441544536E-01  1 S  pz                15    0.139945451989E-01  2 S  s          
    28   -0.139903417670E-01  3 S  s                 11   -0.670224773505E-03  1 S  px         
    10    0.160209444288E-03  1 S  s                  6   -0.822467743758E-04  1 S  s          
     7   -0.553283352929E-04  1 S  px                 3    0.599915653108E-05  1 S  px         
     1   -0.292246969302E-05  1 S  s                  2    0.671702140286E-06  1 S  s          
    38   -0.104062311518E-13  3 S  py                25   -0.969700172530E-14  2 S  py         
    34    0.873232211406E-14  3 S  py                21    0.832245125466E-14  2 S  py         
    12    0.381017274938E-14  1 S  py                30   -0.202940932795E-14  3 S  py         
    17   -0.166160199089E-14  2 S  py                 8   -0.238562378353E-15  1 S  py         
     4   -0.429751434133E-16  1 S  py         


 center of mass
 --------------
 x =   0.00000000 y =   0.00000000 z =  -0.00000000

 moments of inertia (a.u.)
 ------------------
         569.844523332850           0.000000000000           0.299921367473
           0.000000000000         739.427753248504           0.000000000000
           0.299921367473           0.000000000000         169.583229915654

  Mulliken analysis of the total density
  --------------------------------------

    Atom       Charge   Shell Charges
 -----------   ------   -------------------------------------------------------
    1 S   16    15.90   2.00  2.00  5.98  1.41  2.77  0.56  1.18
    2 S   16    16.05   2.00  2.00  5.98  1.40  2.72  0.60  1.35
    3 S   16    16.05   2.00  2.00  5.98  1.40  2.72  0.60  1.35

  Mulliken analysis of the alpha density
  --------------------------------------

    Atom       Charge   Shell Charges
 -----------   ------   -------------------------------------------------------
    1 S   16     7.95   1.00  1.00  2.99  0.70  1.39  0.28  0.59
    2 S   16     8.02   1.00  1.00  2.99  0.70  1.36  0.30  0.68
    3 S   16     8.02   1.00  1.00  2.99  0.70  1.36  0.30  0.68

   Mulliken analysis of the beta density
   -------------------------------------

    Atom       Charge   Shell Charges
 -----------   ------   -------------------------------------------------------
    1 S   16     7.95   1.00  1.00  2.99  0.70  1.39  0.28  0.59
    2 S   16     8.02   1.00  1.00  2.99  0.70  1.36  0.30  0.68
    3 S   16     8.02   1.00  1.00  2.99  0.70  1.36  0.30  0.68

   Mulliken analysis of the spin density
   -------------------------------------

    Atom       Charge   Shell Charges
 -----------   ------   -------------------------------------------------------
    1 S   16    -0.00  -0.00 -0.00  0.00  0.00  0.00 -0.00 -0.00
    2 S   16     0.00   0.00  0.00  0.00 -0.00  0.00  0.00  0.00
    3 S   16    -0.00  -0.00  0.00 -0.00  0.00  0.00 -0.00  0.00

       Multipole analysis of the density wrt the origin
       ------------------------------------------------

     L   x y z        total         alpha         beta         nuclear
     -   - - -        -----         -----         ----         -------
     0   0 0 0     -0.000000    -24.000000    -24.000000     48.000000

     1   1 0 0      0.405006      0.202503      0.202503      0.000000
     1   0 1 0     -0.000000     -0.000000     -0.000000      0.000000
     1   0 0 1      0.000363      0.000182      0.000182      0.000000

     2   2 0 0    -29.905863    -57.385775    -57.385775     84.865687
     2   1 1 0      0.000000      0.000000      0.000000      0.000000
     2   1 0 1      0.002137      0.076115      0.076115     -0.150092
     2   0 2 0    -29.383558    -14.691779    -14.691779      0.000000
     2   0 1 1     -0.000000     -0.000000     -0.000000      0.000000
     2   0 0 2    -32.747509   -158.959336   -158.959336    285.171163


 Parallel integral file used       4 records with       0 large values


 Task  times  cpu:        3.4s     wall:        3.9s
 Summary of allocated global arrays
-----------------------------------
  No active global arrays



                         GA Statistics for process    0
                         ------------------------------

       create   destroy   get      put      acc     scatter   gather  read&inc
calls: 5379     5379     8.64e+05 2.97e+05 2.66e+05 1214        0     2689     
number of processes/call 1.00e+00 1.00e+00 1.00e+00 1.00e+00 0.00e+00
bytes total:             1.06e+09 2.10e+08 4.15e+08 1.05e+07 0.00e+00 1.08e+04
bytes remote:            0.00e+00 0.00e+00 0.00e+00 0.00e+00 0.00e+00 0.00e+00
Max memory consumed for GA by this process: 71489524 bytes
MA_summarize_allocated_blocks: starting scan ...
MA_summarize_allocated_blocks: scan completed: 0 heap blocks, 0 stack blocks
MA usage statistics:

	allocation statistics:
					      heap	     stack
					      ----	     -----
	current number of blocks	         0	         0
	maximum number of blocks	        21	       115
	current total bytes		         0	         0
	maximum total bytes		  11388868	  25472668
	maximum total K-bytes		     11389	     25473
	maximum total M-bytes		        12	        26


                                NWChem Input Module
                                -------------------





                                     CITATION
                                     --------
                Please cite the following reference when publishing
                           results obtained with NWChem:

                 M. Valiev, E.J. Bylaska, N. Govind, K. Kowalski,
              T.P. Straatsma, H.J.J. van Dam, D. Wang, J. Nieplocha,
                        E. Apra, T.L. Windus, W.A. de Jong
                 "NWChem: a comprehensive and scalable open-source
                  solution for large scale molecular simulations"
                      Comput. Phys. Commun. 181, 1477 (2010)
                           doi:10.1016/j.cpc.2010.04.018

                                      AUTHORS
                                      -------
          E. Apra, E. J. Bylaska, W. A. de Jong, N. Govind, K. Kowalski,
       T. P. Straatsma, M. Valiev, H. J. J. van Dam, D. Wang, T. L. Windus,
        J. Hammond, J. Autschbach, K. Bhaskaran-Nair, J. Brabec, K. Lopata,
        S. Krishnamoorthy, W. Ma, M. Klemm, O. Villa, Y. Chen, V. Anisimov,
    F. Aquino, S. Hirata, M. T. Hackler, T. Risthaus, M. Malagoli, A. Marenich,
   A. Otero-de-la-Roza, J. Mullin, P. Nichols, R. Peverati, J. Pittner, Y. Zhao,
         P.-D. Fan, A. Fonari, R. J. Harrison, M. Dupuis, D. Silverstein,
    D. M. A. Smith, J. Nieplocha, V. Tipparaju, M. Krishnan, B. E. Van Kuiken,
        A. Vazquez-Mayagoitia, L. Jensen, M. Swart, Q. Wu, T. Van Voorhis,
     A. A. Auer, M. Nooijen, L. D. Crosby, E. Brown, G. Cisneros, G. I. Fann,
   H. Fruchtl, J. Garza, K. Hirao, R. A. Kendall, J. A. Nichols, K. Tsemekhman,
    K. Wolinski, J. Anchell, D. E. Bernholdt, P. Borowski, T. Clark, D. Clerc,
   H. Dachsel, M. J. O. Deegan, K. Dyall, D. Elwood, E. Glendening, M. Gutowski,
   A. C. Hess, J. Jaffe, B. G. Johnson, J. Ju, R. Kobayashi, R. Kutteh, Z. Lin,
   R. Littlefield, X. Long, B. Meng, T. Nakajima, S. Niu, L. Pollack, M. Rosing,
   K. Glaesemann, G. Sandrone, M. Stave, H. Taylor, G. Thomas, J. H. van Lenthe,
                               A. T. Wong, Z. Zhang.

 Total times  cpu:      303.3s     wall:      556.9s
